
thermo          10
thermo_style    custom step time temp fnorm pe ke lx ly lz pxx pyy pzz pxy pxz pyz

timestep        0.001

min_style       fire
minimize        0.0 1.0e-8 2000 4000

CITE-CITE-CITE-CITE-CITE-CITE-CITE-CITE-CITE-CITE-CITE-CITE-CITE

Your simulation uses code contributions which should be cited:

- Type Label Framework: https://doi.org/10.1021/acs.jpcb.3c08419

@Article{Gissinger24,
 author = {Jacob R. Gissinger, Ilia Nikiforov, Yaser Afshar, Brendon Waters, Moon-ki Choi, Daniel S. Karls, Alexander Stukowski, Wonpil Im, Hendrik Heinz, Axel Kohlmeyer, and Ellad B. Tadmor},
 title = {Type Label Framework for Bonded Force Fields in LAMMPS},
 journal = {J. Phys. Chem. B},
 year =    2024,
 volume =  128,
 number =  13,
 pages =   {3282–-3297}
}

CITE-CITE-CITE-CITE-CITE-CITE-CITE-CITE-CITE-CITE-CITE-CITE-CITE

Switching to 'neigh_modify every 1 delay 0 check yes' setting during minimization
Neighbor list info ...
  update: every = 1 steps, delay = 0 steps, check = yes
  max neighbors/atom: 2000, page size: 100000
  master list distance cutoff = 7.4
  ghost atom cutoff = 7.4
  binsize = 3.7, bins = 3 2 54
  1 neighbor lists, perpetual/occasional/extra = 1 0 0
  (1) pair grace, perpetual
      attributes: full, newton on
      pair build: full/bin/atomonly
      stencil: full/bin/3d
      bin: standard
  Parameters for fire:
    dmax  delaystep dtgrow dtshrink alpha0 alphashrink tmax tmin   integrator   halfstepback   abcfire  
     0.1     20      1.1     0.5     0.25     0.99      10  0.02 eulerimplicit      yes          no     
[GRACE] Atoms padding: new num. of atoms = 315 (incl. 0.952% fake atoms)
[GRACE] Neighbours padding: extending new num. of neighbours = 20943 (incl. 0.988% fake neighbours)
Per MPI rank memory allocation (min/avg/max) = 4.494 | 4.494 | 4.494 Mbytes
   Step          Time           Temp          Fnorm          PotEng         KinEng           Lx             Ly             Lz            Pxx            Pyy            Pzz            Pxy            Pxz            Pyz      
         0   0              0              61.777138     -3096.2248      0              4.9770056      4.3102133      199.19683      161481         161481         320703.71      9.0365605e-07  2.5442197e-10 -6.7622462e-11
        10   0.01           446.9865       52.283798     -3121.8221      17.968815      4.9770056      4.3102133      199.19683      145155.07      145155.07      313056.03      8.6135963e-07 -6.9571504e-10  9.4210575e-11
        20   0.02           1301.977       32.30201      -3168.2682      52.339354      4.9770056      4.3102133      199.19683      113524.25      113524.25      300986.99      7.8300723e-07 -1.0587145e-10  4.1228869e-10
        30   0.070738431    2198.489       5.1249284     -3207.2896      88.379048      4.9770056      4.3102133      199.19683      92010.223      92010.223      273590.95      6.8524588e-07  9.5784809e-11 -7.3014331e-11
        40   0.057062334    2.066363       3.6048275     -3208.3532      0.083067597    4.9770056      4.3102133      199.19683      96454.063      96454.063      197912.82      6.5383119e-07 -2.8104854e-11 -4.0978052e-11
        50   0.071327918    8.8101808      2.3381441     -3208.6158      0.35416843     4.9770056      4.3102133      199.19683      97005.068      97005.068      197172.47      6.5359245e-07 -7.2599479e-11  9.3546013e-11
        60   0.16679752     15.141222      0.26242571    -3208.8148      0.60867567     4.9770056      4.3102133      199.19683      98576.75       98576.75       195741.94      6.5181348e-07  8.7709506e-11  1.0856916e-10
        70   0.10702841     0.021580261    0.26876525    -3208.8163      0.00086752446  4.9770056      4.3102133      199.19683      98748.944      98748.944      195146.76      6.5129191e-07  1.391708e-10   1.4254494e-10
        80   0.12231818     0.076337555    0.15228133    -3208.8185      0.0030687625   4.9770056      4.3102133      199.19683      98726.585      98726.585      195139.46      6.5097111e-07  1.2166662e-10  2.2877047e-10
        90   0.29497487     0.12609433     0.024912637   -3208.8199      0.00506898     4.9770056      4.3102133      199.19683      98786.736      98786.736      195044.18      6.5039726e-07 -1.9320818e-12  3.4528899e-11
       100   0.18026242     5.9653099e-05  0.012483309   -3208.8199      2.3980489e-06  4.9770056      4.3102133      199.19683      98808.477      98808.477      195019.23      6.5032919e-07 -2.2144543e-11  6.5841477e-11
       110   0.19828866     0.00019618789  0.0050374923  -3208.8199      7.8867346e-06  4.9770056      4.3102133      199.19683      98813.361      98813.361      195015.47      6.5036383e-07  1.2323608e-11 -7.0763397e-12
       120   0.15835333     3.3645102e-08  0.00096172026 -3208.8199      1.3525299e-09  4.9770056      4.3102133      199.19683      98817.924      98817.924      195010.89      6.5043343e-07 -3.2635283e-11  1.0605426e-10
       130   0.17154944     3.7556455e-07  0.00078668748 -3208.8199      1.5097659e-08  4.9770056      4.3102133      199.19683      98817.91       98817.91       195010.82      6.5030355e-07 -6.959975e-11   7.411627e-11 
       140   0.24589632     9.8079387e-07  0.00050812088 -3208.8199      3.942782e-08   4.9770056      4.3102133      199.19683      98817.909      98817.909      195010.67      6.5029822e-07 -7.2929908e-11  2.2207324e-11
       150   0.68334828     1.6811335e-06  0.00022261466 -3208.8199      6.7581409e-08  4.9770056      4.3102133      199.19683      98818.175      98818.175      195010.11      6.5019932e-07  4.7787292e-11 -2.3995553e-11
       160   1.6            1.4037207e-06  0.0001086089  -3208.8199      5.6429437e-08  4.9770056      4.3102133      199.19683      98818.161      98818.161      195010.17      6.5041744e-07 -1.3370554e-10 -8.9196697e-11
       170   1.7            1.6055633e-06  5.801799e-05  -3208.8199      6.4543492e-08  4.9770056      4.3102133      199.19683      98818.176      98818.176      195010.14      6.5040212e-07 -4.8455293e-11  7.8674567e-11
       180   1.8            9.0812459e-07  6.4881796e-05 -3208.8199      3.6506522e-08  4.9770056      4.3102133      199.19683      98818.18       98818.18       195010.16      6.5010174e-07  2.1637585e-12  2.3130816e-10
       190   0.95           1.1810439e-09  1.5813817e-05 -3208.8199      4.7477854e-11  4.9770056      4.3102133      199.19683      98818.169      98818.169      195010.15      6.5028956e-07 -8.4252359e-11 -4.7776961e-11
       200   1              8.8960469e-10  1.1117244e-05 -3208.8199      3.5762024e-11  4.9770056      4.3102133      199.19683      98818.167      98818.167      195010.15      6.5027558e-07  8.4918235e-12  7.7352688e-11
       210   2.046153       2.3581335e-09  9.5486154e-06 -3208.8199      9.4796742e-11  4.9770056      4.3102133      199.19683      98818.168      98818.168      195010.15      6.5019133e-07 -4.5123287e-11  9.7427133e-11
       220   2.2            5.5361484e-09  7.2544874e-06 -3208.8199      2.2255264e-10  4.9770056      4.3102133      199.19683      98818.167      98818.167      195010.15      6.5026858e-07  5.6112688e-11 -2.1656211e-11
       230   2.3            8.8028686e-09  4.3176241e-06 -3208.8199      3.5387448e-10  4.9770056      4.3102133      199.19683      98818.167      98818.167      195010.15      6.5037815e-07 -1.7116872e-10 -3.2739388e-11
       240   2.4            4.1437718e-09  2.0669658e-06 -3208.8199      1.6657923e-10  4.9770056      4.3102133      199.19683      98818.167      98818.167      195010.15      6.501437e-07   4.162692e-12   6.4677426e-11
       250   2.5            5.8572886e-10  1.8173855e-06 -3208.8199      2.3546245e-11  4.9770056      4.3102133      199.19683      98818.167      98818.167      195010.15      6.5012905e-07  3.0770427e-10  1.2069527e-10
       260   1.3            3.1419268e-13  3.3108605e-07 -3208.8199      1.2630516e-14  4.9770056      4.3102133      199.19683      98818.168      98818.168      195010.15      6.5027358e-07 -3.0970213e-11 -1.323727e-11 
       270   1.35           7.0859598e-13  2.5214023e-07 -3208.8199      2.8485491e-14  4.9770056      4.3102133      199.19683      98818.168      98818.168      195010.15      6.5029056e-07  9.4908709e-12 -4.9639758e-11
       280   2.8            1.9457335e-12  2.3723039e-07 -3208.8199      7.8218303e-14  4.9770056      4.3102133      199.19683      98818.168      98818.168      195010.15      6.5023562e-07  3.8296501e-11 -2.2603261e-11
       290   2.9            4.4162653e-12  2.1611911e-07 -3208.8199      1.7753344e-13  4.9770056      4.3102133      199.19683      98818.168      98818.168      195010.15      6.5022962e-07  2.2311875e-11 -6.1649039e-11
       300   3              7.6585173e-12  1.9028577e-07 -3208.8199      3.0787167e-13  4.9770056      4.3102133      199.19683      98818.168      98818.168      195010.15      6.5030788e-07 -7.592697e-11   4.3187629e-11
       310   3.1            1.1307281e-11  1.6114339e-07 -3208.8199      4.5455161e-13  4.9770056      4.3102133      199.19683      98818.168      98818.168      195010.15      6.5025093e-07  8.3252646e-13  2.428914e-11 
       320   3.2            1.4967914e-11  1.2924644e-07 -3208.8199      6.0170874e-13  4.9770056      4.3102133      199.19683      98818.168      98818.168      195010.15      6.503928e-07   2.4309957e-11  3.9784656e-11
       330   3.3            1.2672285e-11  1.7372705e-07 -3208.8199      5.0942464e-13  4.9770056      4.3102133      199.19683      98818.168      98818.168      195010.15      6.5041777e-07  2.9138625e-11  3.7235028e-11
       340   3.4            8.8092662e-12  1.2045747e-07 -3208.8199      3.5413167e-13  4.9770056      4.3102133      199.19683      98818.168      98818.168      195010.15      6.5020132e-07  4.9951971e-12 -2.9290578e-10
       350   3.5            5.3356887e-12  5.8205413e-08 -3208.8199      2.1449418e-13  4.9770056      4.3102133      199.19683      98818.168      98818.168      195010.15      6.5028057e-07 -9.923788e-11  -1.4430912e-10
       360   3.6            3.1046058e-12  4.059418e-08  -3208.8199      1.2480486e-13  4.9770056      4.3102133      199.19683      98818.168      98818.168      195010.15      6.5016735e-07 -7.7925051e-11  1.1778255e-10
       370   3.7            1.68587e-12    2.82671e-08   -3208.8199      6.7771813e-14  4.9770056      4.3102133      199.19683      98818.168      98818.168      195010.15      6.5015636e-07 -6.310597e-11   3.0893204e-10
       380   3.8            7.9934767e-13  1.4737334e-08 -3208.8199      3.21337e-14    4.9770056      4.3102133      199.19683      98818.168      98818.168      195010.15      6.5023195e-07 -1.8648731e-11 -2.3113187e-10
       386   3.86           4.7950544e-13  9.8256413e-09 -3208.8199      1.9276073e-14  4.9770056      4.3102133      199.19683      98818.168      98818.168      195010.15      6.5033219e-07  1.2521291e-10 -2.9380076e-10
Loop time of 2.50277 on 2 procs for 386 steps with 312 atoms

103.0% CPU use with 1 MPI tasks x 2 OpenMP threads

Minimization stats:
  Stopping criterion = force tolerance
  Energy initial, next-to-last, final = 
     -3096.22484279516  -3208.81990602234  -3208.81990602234
  Force two-norm initial, final = 61.777138 9.8256413e-09
  Force max component initial, final = 4.6218795 1.9860961e-09
  Final line search alpha, max atom move = 0 0
  Iterations, force evaluations = 386 393

MPI task timing breakdown:
Section |  min time  |  avg time  |  max time  |%varavg| %total
---------------------------------------------------------------
Pair    | 2.4898     | 2.4898     | 2.4898     |   0.0 | 99.48
Neigh   | 0          | 0          | 0          |   0.0 |  0.00
Comm    | 0.0081368  | 0.0081368  | 0.0081368  |   0.0 |  0.33
Output  | 0.0017656  | 0.0017656  | 0.0017656  |   0.0 |  0.07
Modify  | 0          | 0          | 0          |   0.0 |  0.00
Other   |            | 0.003022   |            |       |  0.12

Nlocal:            312 ave         312 max         312 min
Histogram: 1 0 0 0 0 0 0 0 0 0
Nghost:           6722 ave        6722 max        6722 min
Histogram: 1 0 0 0 0 0 0 0 0 0
Neighs:              0 ave           0 max           0 min
Histogram: 1 0 0 0 0 0 0 0 0 0
FullNghs:        37824 ave       37824 max       37824 min
Histogram: 1 0 0 0 0 0 0 0 0 0

Total # of neighbors = 37824
Ave neighs/atom = 121.23077
Neighbor list builds = 0
Dangerous builds = 0

#write_data      fire_${name}.data

fix             3 all box/relax z 0.0 vmax 0.001
min_style       cg
minimize        0.0 1.0e-8 1000 2000
Switching to 'neigh_modify every 1 delay 0 check yes' setting during minimization
WARNING: Energy due to 3 extra global DOFs will be included in minimizer energies
 (src/min.cpp:219)
Per MPI rank memory allocation (min/avg/max) = 5.62 | 5.62 | 5.62 Mbytes
   Step          Time           Temp          Fnorm          PotEng         KinEng           Lx             Ly             Lz            Pxx            Pyy            Pzz            Pxy            Pxz            Pyz      
       386   0.386          4.7950544e-13  9.8255451e-09 -3208.8199      1.9276073e-14  4.9770056      4.3102133      199.19683      98818.168      98818.168      195010.15      6.5035384e-07  1.4386164e-10 -3.2791378e-10
       390   0.39           4.7950544e-13  0.2012408     -3210.8134      1.9276073e-14  4.9770056      4.3102133      199.99362      91974.686      91974.686      178808.53      6.3641845e-07 -1.1194412e-10 -2.0137504e-10
       400   0.4            4.7950544e-13  0.65943788    -3215.0698      1.9276073e-14  4.9770056      4.3102133      201.98559      75303.047      75303.047      140986.47      6.030377e-07  -5.8540011e-11 -2.9372637e-10
       410   0.41           4.7950544e-13  1.0686027     -3218.3646      1.9276073e-14  4.9770056      4.3102133      203.97756      59214.768      59214.768      106619.5       5.7284228e-07 -3.2520801e-11 -1.4658753e-10
       420   0.42           4.7950544e-13  1.4454962     -3220.7837      1.9276073e-14  4.9770056      4.3102133      205.96953      43674.153      43674.153      75243.527      5.4594011e-07 -2.027386e-10  -1.175127e-10 
       430   0.43           4.7950544e-13  1.8024404     -3222.4011      1.9276073e-14  4.9770056      4.3102133      207.96149      28660.9        28660.9        46418.613      5.2212522e-07 -4.0851115e-10 -2.7093192e-11
       440   0.44           4.7950544e-13  2.1458249     -3223.2795      1.9276073e-14  4.9770056      4.3102133      209.95346      14167.011      14167.011      19745.047      5.0128953e-07 -4.9397067e-10 -1.3556301e-10
       450   0.45           4.7950544e-13  1.4154999     -3223.6736      1.9276073e-14  4.9770056      4.3102133      211.56359      2279.1591      2279.1591      1751.8341      4.9167849e-07 -3.4051211e-10  6.6785529e-11
       460   0.46           4.7950544e-13  0.019153025   -3223.7937      1.9276073e-14  4.9770056      4.3102133      211.72513     -27.276195     -27.276195     -4.3721618      4.9823373e-07  1.376988e-10   7.478267e-11 
       470   0.47           4.7950544e-13  0.021808419   -3223.7938      1.9276073e-14  4.9770056      4.3102133      211.72464     -39.263236     -39.263236     -10.597941      4.986671e-07  -2.2119585e-10 -1.7146791e-10
       480   0.48           4.7950544e-13  0.012203203   -3223.7938      1.9276073e-14  4.9770056      4.3102133      211.72432     -42.722392     -42.722392     -10.051964      4.9839181e-07 -2.8511118e-11 -2.6719384e-11
       490   0.49           4.7950544e-13  0.016019488   -3223.7938      1.9276073e-14  4.9770056      4.3102133      211.72651     -49.481533     -49.481533     -22.105864      4.9790136e-07  2.9560403e-10  2.5137896e-10
       500   0.5            4.7950544e-13  0.0077768741  -3223.7938      1.9276073e-14  4.9770056      4.3102133      211.72459     -36.340797     -36.340797     -10.01768       4.9829609e-07 -1.4255539e-11 -7.9139802e-11
       510   0.51           4.7950544e-13  0.002630027   -3223.7938      1.9276073e-14  4.9770056      4.3102133      211.72397     -32.732369     -32.732369     -1.4377182      4.9814435e-07  2.5691388e-11  1.8402042e-10
       520   0.52           4.7950544e-13  0.0036558438  -3223.7938      1.9276073e-14  4.9770056      4.3102133      211.72438     -34.590385     -34.590384     -2.1353271      4.9839999e-07 -1.3064983e-10 -3.5476365e-10
       530   0.53           4.7950544e-13  0.0041750959  -3223.7938      1.9276073e-14  4.9770056      4.3102133      211.7241      -32.626895     -32.626895     -2.8565182      4.9797861e-07  8.2870332e-11  5.365426e-12 
       540   0.54           4.7950544e-13  0.003431012   -3223.7938      1.9276073e-14  4.9770056      4.3102133      211.72417     -33.569974     -33.569974     -2.3659265      4.9786425e-07 -7.3784329e-11  2.267478e-10 
       550   0.55           4.7950544e-13  0.002067094   -3223.7938      1.9276073e-14  4.9770056      4.3102133      211.7241      -34.227392     -34.227392     -1.5296982      4.9809046e-07 -7.8170683e-11 -2.9653752e-10
       560   0.56           4.7950544e-13  0.0022093948  -3223.7938      1.9276073e-14  4.9770056      4.3102133      211.72422     -33.361796     -33.361796     -1.7187784      4.9810397e-07  1.394226e-10   4.1959934e-10
       570   0.57           4.7950544e-13  0.003506673   -3223.7938      1.9276073e-14  4.9770056      4.3102133      211.72409     -32.882129     -32.882129     -2.5570913      4.9779739e-07 -1.7435667e-10 -3.8795535e-10
       580   0.58           4.7950544e-13  0.0023035677  -3223.7938      1.9276073e-14  4.9770056      4.3102133      211.72411     -33.594825     -33.594825     -1.6217058      4.9791107e-07 -1.8516582e-10 -5.7014469e-10
       590   0.59           4.7950544e-13  0.0016855915  -3223.7938      1.9276073e-14  4.9770056      4.3102133      211.7241      -33.862386     -33.862385     -1.2745284      4.9808014e-07  2.5691369e-10  6.9256059e-10
       600   0.6            4.7950544e-13  0.0012681959  -3223.7938      1.9276073e-14  4.9770056      4.3102133      211.7241      -33.056565     -33.056565     -0.90023022     4.9778092e-07 -6.2661458e-13 -6.0155397e-11
       610   0.61           4.7950544e-13  0.00072165761 -3223.7938      1.9276073e-14  4.9770056      4.3102133      211.72401     -32.402259     -32.402258     -0.49367857     4.9785272e-07 -1.6088443e-10 -2.5699212e-10
       620   0.62           4.7950544e-13  0.00063044791 -3223.7938      1.9276073e-14  4.9770056      4.3102133      211.72404     -32.885395     -32.885395     -0.44031378     4.9783619e-07  2.8855801e-10  1.2212215e-10
       630   0.63           4.7950544e-13  0.00045732005 -3223.7938      1.9276073e-14  4.9770056      4.3102133      211.724       -32.737796     -32.737796     -0.28653778     4.9809571e-07 -8.475022e-11   7.2178683e-11
       640   0.64           4.7950544e-13  0.00050162779 -3223.7938      1.9276073e-14  4.9770056      4.3102133      211.72403     -32.720017     -32.720017     -0.28024022     4.974811e-07  -1.4835203e-10  3.9790307e-11
       650   0.65           4.7950544e-13  0.00050373714 -3223.7938      1.9276073e-14  4.9770056      4.3102133      211.72401     -32.583816     -32.583816     -0.25217024     4.9747487e-07 -2.1148387e-11 -6.5667711e-11
       660   0.66           4.7950544e-13  0.0006361138  -3223.7938      1.9276073e-14  4.9770056      4.3102133      211.72403     -32.650475     -32.650474     -0.29848881     4.9841099e-07  7.3627768e-12  8.4397743e-11
       670   0.67           4.7950544e-13  0.00052550195 -3223.7938      1.9276073e-14  4.9770056      4.3102133      211.72401     -32.583674     -32.583674     -0.27671204     4.9823041e-07  4.2093132e-10  1.1006955e-10
       680   0.68           4.7950544e-13  0.00079860244 -3223.7938      1.9276073e-14  4.9770056      4.3102133      211.72399     -32.65712      -32.65712      -0.43769117     4.9731324e-07  2.4124838e-11 -8.6649636e-12
       690   0.69           4.7950544e-13  0.00064769108 -3223.7938      1.9276073e-14  4.9770056      4.3102133      211.72403     -32.943436     -32.943435     -0.39241465     4.9700469e-07 -5.3528923e-10 -9.4090748e-11
       700   0.7            4.7950544e-13  0.00067669847 -3223.7938      1.9276073e-14  4.9770056      4.3102133      211.72405     -33.072698     -33.072698     -0.44976868     4.9797089e-07 -6.5105701e-10 -2.5368273e-10
       710   0.71           4.7950544e-13  0.00077882537 -3223.7938      1.9276073e-14  4.9770056      4.3102133      211.72402     -32.764982     -32.764982     -0.54538587     4.9790516e-07  8.9167879e-10 -1.6717998e-10
       720   0.72           4.7950544e-13  0.00044681851 -3223.7938      1.9276073e-14  4.9770056      4.3102133      211.72402     -32.522199     -32.522199     -0.3270542      4.9778721e-07  1.3249858e-09  5.2038748e-10
       730   0.73           4.7950544e-13  0.00038801306 -3223.7938      1.9276073e-14  4.9770056      4.3102133      211.72401     -32.553257     -32.553257     -0.30381472     4.9791882e-07 -7.6572841e-10  2.8627677e-10
       740   0.74           4.7950544e-13  0.00024617101 -3223.7938      1.9276073e-14  4.9770056      4.3102133      211.724       -32.572552     -32.572552     -0.17012548     4.971572e-07  -5.9090176e-10 -2.8206669e-10
       750   0.75           4.7950544e-13  0.00017636058 -3223.7938      1.9276073e-14  4.9770056      4.3102133      211.72401     -32.684717     -32.684717     -0.10543304     4.9747346e-07  3.9962628e-10 -3.3215703e-10
       760   0.76           4.7950544e-13  0.00016123719 -3223.7938      1.9276073e-14  4.9770056      4.3102133      211.724       -32.602335     -32.602335     -0.076344082    4.9832208e-07  2.9827067e-10  1.0914921e-10
       770   0.77           4.7950544e-13  0.00018567851 -3223.7938      1.9276073e-14  4.9770056      4.3102133      211.724       -32.486195     -32.486195     -0.070722414    4.9754665e-07 -1.828161e-10   3.6539724e-10
       780   0.78           4.7950544e-13  0.00022344767 -3223.7938      1.9276073e-14  4.9770056      4.3102133      211.724       -32.44845      -32.44845      -0.074047342    4.9663883e-07 -7.4317018e-10 -9.5911875e-11
       790   0.79           4.7950544e-13  0.00023558137 -3223.7938      1.9276073e-14  4.9770056      4.3102133      211.72399     -32.490676     -32.490676     -0.067438502    4.9753334e-07 -3.8427413e-10 -3.5328586e-10
       800   0.8            4.7950544e-13  0.00025666055 -3223.7938      1.9276073e-14  4.9770056      4.3102133      211.724       -32.630314     -32.630313     -0.069296714    4.9876697e-07  8.2055763e-10 -1.7260417e-10
       810   0.81           4.7950544e-13  0.00018824557 -3223.7938      1.9276073e-14  4.9770056      4.3102133      211.724       -32.646446     -32.646446     -0.048429777    4.978966e-07   1.1725609e-09 -2.2079509e-10
       820   0.82           4.7950544e-13  0.00016155198 -3223.7938      1.9276073e-14  4.9770056      4.3102133      211.72399     -32.580848     -32.580848     -0.037940723    4.9731214e-07  4.0291606e-10  4.5214485e-11
       830   0.83           4.7950544e-13  0.00017426766 -3223.7938      1.9276073e-14  4.9770056      4.3102133      211.72399     -32.532375     -32.532375     -0.038796892    4.973748e-07  -8.5517836e-10  3.3396838e-10
       840   0.84           4.7950544e-13  0.00016799993 -3223.7938      1.9276073e-14  4.9770056      4.3102133      211.724       -32.499383     -32.499383     -0.037691821    4.9744278e-07 -1.4760012e-09  4.7910901e-10
       850   0.85           4.7950544e-13  0.00014420024 -3223.7938      1.9276073e-14  4.9770056      4.3102133      211.72399     -32.470824     -32.470824     -0.031096915    4.9718995e-07 -7.1011604e-10  1.6744436e-10
       860   0.86           4.7950544e-13  0.00026767456 -3223.7938      1.9276073e-14  4.9770056      4.3102133      211.72399     -32.484684     -32.484684     -0.057812784    4.9728975e-07  1.5958421e-09 -8.9984456e-10
       870   0.87           4.7950544e-13  0.00024133893 -3223.7938      1.9276073e-14  4.9770056      4.3102133      211.72399     -32.551764     -32.551764     -0.054749251    4.9796195e-07  4.3941661e-09 -2.2686841e-09
       880   0.88           4.7950544e-13  0.0002325164  -3223.7938      1.9276073e-14  4.9770056      4.3102133      211.724       -32.607015     -32.607015     -0.054167931    4.9869883e-07  3.7341795e-09 -1.8685192e-09
       890   0.89           4.7950544e-13  0.0003125309  -3223.7938      1.9276073e-14  4.9770056      4.3102133      211.72401     -32.643061     -32.643061     -0.076761158    4.9914247e-07 -1.2527681e-09  8.3561605e-10
       900   0.9            4.7950544e-13  0.00024356218 -3223.7938      1.9276073e-14  4.9770056      4.3102133      211.724       -32.60831      -32.60831      -0.063371134    4.9807128e-07 -5.1893456e-09  3.3336721e-09
       910   0.91           4.7950544e-13  0.00022610096 -3223.7938      1.9276073e-14  4.9770056      4.3102133      211.72399     -32.583105     -32.583105     -0.061554347    4.9591651e-07 -4.9465309e-09  3.2224767e-09
       920   0.92           4.7950544e-13  0.00018209265 -3223.7938      1.9276073e-14  4.9770056      4.3102133      211.72399     -32.576962     -32.576962     -0.052278165    4.9467956e-07 -2.3798992e-09  1.605026e-09 
       930   0.93           4.7950544e-13  0.00016415322 -3223.7938      1.9276073e-14  4.9770056      4.3102133      211.724       -32.576041     -32.576041     -0.049886842    4.9566537e-07  6.4228456e-11 -1.3227533e-11
       940   0.94           4.7950544e-13  0.00016626357 -3223.7938      1.9276073e-14  4.9770056      4.3102133      211.724       -32.550894     -32.550894     -0.052895305    4.9842641e-07  2.3172372e-09 -1.8086184e-09
       950   0.95           4.7950544e-13  0.00011060019 -3223.7938      1.9276073e-14  4.9770056      4.3102133      211.724       -32.506679     -32.506679     -0.036280519    4.9985402e-07  3.066517e-09  -2.5110486e-09
       960   0.96           4.7950544e-13  0.00010193483 -3223.7938      1.9276073e-14  4.9770056      4.3102133      211.72399     -32.49057      -32.49057      -0.034451454    4.9931231e-07  2.2793268e-09 -1.6757458e-09
       970   0.97           4.7950544e-13  0.00011303508 -3223.7938      1.9276073e-14  4.9770056      4.3102133      211.72399     -32.500864     -32.500864     -0.039495508    4.9672751e-07  3.8756389e-10  7.8366549e-11
       980   0.98           4.7950544e-13  9.422066e-05  -3223.7938      1.9276073e-14  4.9770056      4.3102133      211.72399     -32.523254     -32.523254     -0.034231003    4.9532795e-07 -1.4830506e-09  1.4099418e-09
       990   0.99           4.7950544e-13  9.0938647e-05 -3223.7938      1.9276073e-14  4.9770056      4.3102133      211.724       -32.547339     -32.547339     -0.03434656     4.9583707e-07 -2.8755548e-09  2.6093396e-09
      1000   1              4.7950544e-13  8.2411787e-05 -3223.7938      1.9276073e-14  4.9770056      4.3102133      211.724       -32.561224     -32.561224     -0.032080331    4.9698473e-07 -2.7093441e-09  2.3604642e-09
      1010   1.01           4.7950544e-13  7.7679368e-05 -3223.7938      1.9276073e-14  4.9770056      4.3102133      211.72399     -32.565979     -32.565979     -0.031214081    4.9748258e-07 -9.2363648e-10  1.1657464e-09
      1020   1.02           4.7950544e-13  8.1200146e-05 -3223.7938      1.9276073e-14  4.9770056      4.3102133      211.72399     -32.568156     -32.568156     -0.033771785    4.9766587e-07  1.3050908e-09 -1.150404e-09 
      1030   1.03           4.7950544e-13  8.1273803e-05 -3223.7938      1.9276073e-14  4.9770056      4.3102133      211.724       -32.560893     -32.560893     -0.035196171    4.97768e-07    2.9993121e-09 -3.1119469e-09
      1040   1.04           4.7950544e-13  8.2789073e-05 -3223.7938      1.9276073e-14  4.9770056      4.3102133      211.724       -32.537003     -32.537003     -0.037182823    4.9791432e-07  3.3801398e-09 -3.3673039e-09
      1050   1.05           4.7950544e-13  7.0905075e-05 -3223.7938      1.9276073e-14  4.9770056      4.3102133      211.72399     -32.505489     -32.505488     -0.032706604    4.9813928e-07  1.8707712e-09 -1.9495979e-09
      1060   1.06           4.7950544e-13  9.0286807e-05 -3223.7938      1.9276073e-14  4.9770056      4.3102133      211.72399     -32.495198     -32.495198     -0.042916043    4.9824361e-07 -9.2238325e-10  7.8813013e-10
      1070   1.07           4.7950544e-13  0.0001269695  -3223.7938      1.9276073e-14  4.9770056      4.3102133      211.72399     -32.514114     -32.514114     -0.062571368    4.9649127e-07 -5.6846881e-09  5.8026687e-09
      1080   1.08           4.7950544e-13  0.0001010486  -3223.7938      1.9276073e-14  4.9770056      4.3102133      211.724       -32.539156     -32.539156     -0.052071764    4.945583e-07  -8.2082395e-09  8.2134385e-09
      1090   1.09           4.7950544e-13  0.00011245404 -3223.7938      1.9276073e-14  4.9770056      4.3102133      211.724       -32.56884      -32.56884      -0.060565819    4.9390598e-07 -5.3295516e-09  5.5166855e-09
      1100   1.1            4.7950544e-13  0.00016317083 -3223.7938      1.9276073e-14  4.9770056      4.3102133      211.724       -32.609679     -32.609678     -0.091145134    4.9598306e-07  4.9892974e-09 -4.945718e-09 
      1110   1.11           4.7950544e-13  0.00016819576 -3223.7938      1.9276073e-14  4.9770056      4.3102133      211.724       -32.625597     -32.625596     -0.098349041    5.0114688e-07  1.6254968e-08 -1.6584511e-08
      1120   1.12           4.7950544e-13  0.00015456922 -3223.7938      1.9276073e-14  4.9770056      4.3102133      211.724       -32.620902     -32.620902     -0.094742839    5.0541698e-07  1.7071452e-08 -1.7797459e-08
      1130   1.13           4.7950544e-13  0.00013516991 -3223.7938      1.9276073e-14  4.9770056      4.3102133      211.724       -32.600467     -32.600467     -0.086541463    5.0420165e-07  8.7314664e-09 -9.2585411e-09
      1140   1.14           4.7950544e-13  0.00016415829 -3223.7938      1.9276073e-14  4.9770056      4.3102133      211.724       -32.575189     -32.575189     -0.10850707     4.9627178e-07 -5.5090779e-09  5.6630794e-09
      1150   1.15           4.7950544e-13  0.00015610828 -3223.7938      1.9276073e-14  4.9770056      4.3102133      211.724       -32.522912     -32.522912     -0.1069796      4.8545901e-07 -2.0948031e-08  2.2173884e-08
      1160   1.16           4.7950544e-13  9.1143649e-05 -3223.7938      1.9276073e-14  4.9770056      4.3102133      211.72399     -32.494813     -32.494813     -0.064016565    4.8603394e-07 -2.0429034e-08  2.1612111e-08
      1170   1.17           4.7950544e-13  9.5353173e-05 -3223.7938      1.9276073e-14  4.9770056      4.3102133      211.724       -32.524977     -32.524977     -0.067194432    4.9456864e-07 -7.3774993e-09  7.4426971e-09
      1180   1.18           4.7950544e-13  8.9693339e-05 -3223.7938      1.9276073e-14  4.9770056      4.3102133      211.724       -32.570728     -32.570728     -0.064155801    5.0776194e-07  1.6073405e-08 -1.7495223e-08
      1190   1.19           4.7950544e-13  5.0363878e-05 -3223.7938      1.9276073e-14  4.9770056      4.3102133      211.724       -32.565104     -32.565104     -0.035233092    5.0815954e-07  2.0101469e-08 -2.1687491e-08
      1200   1.2            4.7950544e-13  5.282364e-05  -3223.7938      1.9276073e-14  4.9770056      4.3102133      211.724       -32.554043     -32.554043     -0.035323996    4.9931701e-07  8.4983643e-09 -8.6418208e-09
      1210   1.21           4.7950544e-13  4.3017334e-05 -3223.7938      1.9276073e-14  4.9770056      4.3102133      211.72399     -32.532806     -32.532806     -0.027652112    4.9008722e-07 -9.4295202e-09  1.0635086e-08
      1220   1.22           4.7950544e-13  4.1870773e-05 -3223.7938      1.9276073e-14  4.9770056      4.3102133      211.72399     -32.522811     -32.522811     -0.025096326    4.9047792e-07 -1.5770435e-08  1.6643717e-08
      1230   1.23           4.7950544e-13  4.1506615e-05 -3223.7938      1.9276073e-14  4.9770056      4.3102133      211.72399     -32.520982     -32.520981     -0.023265991    4.9579776e-07 -9.9538438e-09  9.7263321e-09
      1240   1.24           4.7950544e-13  4.7284073e-05 -3223.7938      1.9276073e-14  4.9770056      4.3102133      211.72399     -32.528739     -32.528739     -0.024504288    5.0007396e-07  5.0706014e-09 -5.929657e-09 
      1250   1.25           4.7950544e-13  5.7409818e-05 -3223.7938      1.9276073e-14  4.9770056      4.3102133      211.724       -32.537527     -32.537527     -0.027794348    5.033352e-07   2.3615079e-08 -2.4034463e-08
      1260   1.26           4.7950544e-13  6.6142138e-05 -3223.7938      1.9276073e-14  4.9770056      4.3102133      211.724       -32.532598     -32.532598     -0.029716286    5.0588648e-07  2.6656061e-08 -2.6864637e-08
      1270   1.27           4.7950544e-13  6.2623448e-05 -3223.7938      1.9276073e-14  4.9770056      4.3102133      211.72399     -32.52227      -32.52227      -0.025940558    5.0444667e-07  8.9996596e-09 -9.5374358e-09
      1280   1.28           4.7950544e-13  7.7596009e-05 -3223.7938      1.9276073e-14  4.9770056      4.3102133      211.72399     -32.532266     -32.532266     -0.029846326    4.9389252e-07 -1.8298216e-08  1.8478683e-08
      1290   1.29           4.7950544e-13  6.5256727e-05 -3223.7938      1.9276073e-14  4.9770056      4.3102133      211.72399     -32.545691     -32.545691     -0.02388264     4.8018022e-07 -3.6196493e-08  3.7383476e-08
      1300   1.3            4.7950544e-13  5.4406762e-05 -3223.7938      1.9276073e-14  4.9770056      4.3102133      211.72399     -32.54476      -32.54476      -0.018324502    4.8201653e-07 -2.5686682e-08  2.7124391e-08
      1310   1.31           4.7950544e-13  4.9759367e-05 -3223.7938      1.9276073e-14  4.9770056      4.3102133      211.72399     -32.536112     -32.536112     -0.015566629    4.9549855e-07  1.6229434e-10  7.0492686e-10
      1320   1.32           4.7950544e-13  5.5656599e-05 -3223.7938      1.9276073e-14  4.9770056      4.3102133      211.72399     -32.525652     -32.525652     -0.016274831    5.1013434e-07  2.4210681e-08 -2.5006839e-08
      1330   1.33           4.7950544e-13  2.8761048e-05 -3223.7938      1.9276073e-14  4.9770056      4.3102133      211.72399     -32.525415     -32.525415     -0.0012513578   4.8311922e-07 -3.2931651e-08  3.4453102e-08
      1340   1.34           4.7950544e-13  9.1913793e-06 -3223.7938      1.9276073e-14  4.9770056      4.3102133      211.72399     -32.519048     -32.519047     -0.0062227402   4.8915529e-07 -1.6033772e-08  1.6864042e-08
      1350   1.35           4.7950544e-13  1.300737e-05  -3223.7938      1.9276073e-14  4.9770056      4.3102133      211.72399     -32.518911     -32.518911     -0.0064986491   4.7671377e-07 -4.6123549e-08  4.8430467e-08
      1360   1.36           4.7950544e-13  5.9896018e-06 -3223.7938      1.9276073e-14  4.9770056      4.3102133      211.72399     -32.518813     -32.518813     -6.2724367e-05  4.6819425e-07 -6.0472499e-08  6.3211481e-08
      1370   1.37           4.7950544e-13  1.2438543e-06 -3223.7938      1.9276073e-14  4.9770056      4.3102133      211.72399     -32.519573     -32.519572     -0.0027770523   4.9135018e-07 -1.4516101e-08  1.5211736e-08
      1380   1.38           4.7950544e-13  8.2246654e-07 -3223.7938      1.9276073e-14  4.9770056      4.3102133      211.72399     -32.517989     -32.517989     -0.0002973284   4.827655e-07  -2.7554007e-08  2.8833289e-08
      1386   1.386          4.7950544e-13  1.8451315e-07 -3223.7938      1.9276073e-14  4.9770056      4.3102133      211.72399     -32.51803      -32.51803      -9.9655248e-05  4.9532232e-07 -1.9497252e-09  1.9269222e-09
Loop time of 12.4996 on 2 procs for 1000 steps with 312 atoms

103.5% CPU use with 1 MPI tasks x 2 OpenMP threads

Minimization stats:
  Stopping criterion = max iterations
  Energy initial, next-to-last, final = 
     -3208.81990602234  -3223.79378527435  -3223.79378527434
  Force two-norm initial, final = 520.11118 3.2355774e-07
  Force max component initial, final = 520.11118 2.6579035e-07
  Final line search alpha, max atom move = 1 2.6579035e-07
  Iterations, force evaluations = 1000 1937

MPI task timing breakdown:
Section |  min time  |  avg time  |  max time  |%varavg| %total
---------------------------------------------------------------
Pair    | 12.329     | 12.329     | 12.329     |   0.0 | 98.64
Neigh   | 0.012338   | 0.012338   | 0.012338   |   0.0 |  0.10
Comm    | 0.040826   | 0.040826   | 0.040826   |   0.0 |  0.33
Output  | 0.0019453  | 0.0019453  | 0.0019453  |   0.0 |  0.02
Modify  | 0          | 0          | 0          |   0.0 |  0.00
Other   |            | 0.1154     |            |       |  0.92

Nlocal:            312 ave         312 max         312 min
Histogram: 1 0 0 0 0 0 0 0 0 0
Nghost:           6672 ave        6672 max        6672 min
Histogram: 1 0 0 0 0 0 0 0 0 0
Neighs:              0 ave           0 max           0 min
Histogram: 1 0 0 0 0 0 0 0 0 0
FullNghs:        35400 ave       35400 max       35400 min
Histogram: 1 0 0 0 0 0 0 0 0 0

Total # of neighbors = 35400
Ave neighs/atom = 113.46154
Neighbor list builds = 16
Dangerous builds = 0
unfix           3
min_style       fire
minimize        0.0 1.0e-8 2000 4000
Switching to 'neigh_modify every 1 delay 0 check yes' setting during minimization
  Parameters for fire:
    dmax  delaystep dtgrow dtshrink alpha0 alphashrink tmax tmin   integrator   halfstepback   abcfire  
     0.1     20      1.1     0.5     0.25     0.99      10  0.02 eulerimplicit      yes          no     
Per MPI rank memory allocation (min/avg/max) = 4.497 | 4.497 | 4.497 Mbytes
   Step          Time           Temp          Fnorm          PotEng         KinEng           Lx             Ly             Lz            Pxx            Pyy            Pzz            Pxy            Pxz            Pyz      
      1386   1.386          0              1.8451288e-07 -3223.7938      0              4.9770056      4.3102133      211.72399     -32.51803      -32.51803      -9.9655156e-05  4.9518634e-07 -1.9302217e-09  1.9265207e-09
      1390   1.39           5.229226e-16   1.8196793e-07 -3223.7938      2.1021439e-17  4.9770056      4.3102133      211.72399     -32.51803      -32.51803      -0.00010000063  4.9529984e-07 -1.934608e-09   1.9527212e-09
      1400   1.4            6.2150772e-15  1.5964342e-07 -3223.7938      2.4984551e-16  4.9770056      4.3102133      211.72399     -32.518031     -32.51803      -0.0001039819   4.9543722e-07 -1.8307459e-09  1.7220667e-09
      1410   1.87671        1.6163324e-14  1.2091329e-07 -3223.7938      6.4976409e-16  4.9770056      4.3102133      211.72399     -32.518031     -32.518031     -0.00011237997  4.9586254e-07 -1.6771459e-09  1.5760057e-09
      1420   4.9022251      3.4761621e-14  7.8860178e-08 -3223.7938      1.3974139e-15  4.9770056      4.3102133      211.72399     -32.518029     -32.518029     -0.00012953761  4.9674286e-07 -6.5865496e-10  4.8429821e-10
      1430   12.804652      8.527906e-14   4.8340354e-08 -3223.7938      3.4282101e-15  4.9770056      4.3102133      211.72399     -32.518022     -32.518022     -0.00013521367  4.9694158e-07  1.3879612e-10 -8.2047931e-12
      1440   14.4           1.3385929e-13  2.8951627e-08 -3223.7938      5.3811309e-15  4.9770056      4.3102133      211.72399     -32.518023     -32.518023     -0.00013352088  4.9681069e-07  4.6213143e-12  4.9718306e-11
      1450   14.5           1.7690892e-13  1.8022985e-08 -3223.7938      7.1117219e-15  4.9770056      4.3102133      211.72399     -32.518023     -32.518023     -0.00013336504  4.9699421e-07 -6.9006424e-11  1.0161999e-10
      1459   14.59          2.0507105e-13  9.9388272e-09 -3223.7938      8.2438366e-15  4.9770056      4.3102133      211.72399     -32.518024     -32.518023     -0.00013283891  4.9691048e-07 -6.3758485e-11  4.3217133e-11
Loop time of 0.480081 on 2 procs for 73 steps with 312 atoms

101.6% CPU use with 1 MPI tasks x 2 OpenMP threads

Minimization stats:
  Stopping criterion = force tolerance
  Energy initial, next-to-last, final = 
     -3223.79378527434  -3223.79378527434  -3223.79378527434
  Force two-norm initial, final = 1.8451288e-07 9.9388272e-09
  Force max component initial, final = 3.2791543e-08 9.4120578e-10
  Final line search alpha, max atom move = 0 0
  Iterations, force evaluations = 73 74

MPI task timing breakdown:
Section |  min time  |  avg time  |  max time  |%varavg| %total
---------------------------------------------------------------
Pair    | 0.47769    | 0.47769    | 0.47769    |   0.0 | 99.50
Neigh   | 0          | 0          | 0          |   0.0 |  0.00
Comm    | 0.0016433  | 0.0016433  | 0.0016433  |   0.0 |  0.34
Output  | 0.00012016 | 0.00012016 | 0.00012016 |   0.0 |  0.03
Modify  | 0          | 0          | 0          |   0.0 |  0.00
Other   |            | 0.0006241  |            |       |  0.13

Nlocal:            312 ave         312 max         312 min
Histogram: 1 0 0 0 0 0 0 0 0 0
Nghost:           6672 ave        6672 max        6672 min
Histogram: 1 0 0 0 0 0 0 0 0 0
Neighs:              0 ave           0 max           0 min
Histogram: 1 0 0 0 0 0 0 0 0 0
FullNghs:        35400 ave       35400 max       35400 min
Histogram: 1 0 0 0 0 0 0 0 0 0

Total # of neighbors = 35400
Ave neighs/atom = 113.46154
Neighbor list builds = 0
Dangerous builds = 0

fix             3 all box/relax z 0.0 vmax 0.001
min_style       cg
minimize        0.0 1.0e-8 1000 2000
Switching to 'neigh_modify every 1 delay 0 check yes' setting during minimization
WARNING: Energy due to 3 extra global DOFs will be included in minimizer energies
 (src/min.cpp:219)
Per MPI rank memory allocation (min/avg/max) = 5.622 | 5.622 | 5.622 Mbytes
   Step          Time           Temp          Fnorm          PotEng         KinEng           Lx             Ly             Lz            Pxx            Pyy            Pzz            Pxy            Pxz            Pyz      
      1459   1.459          2.0507105e-13  9.9388262e-09 -3223.7938      8.2438366e-15  4.9770056      4.3102133      211.72399     -32.518024     -32.518023     -0.00013283917  4.9688651e-07 -7.1747878e-11  1.3345028e-10
      1460   1.46           2.0507105e-13  1.0344777e-08 -3223.7938      8.2438366e-15  4.9770056      4.3102133      211.72399     -32.51795      -32.51795       9.3467929e-08  4.9693594e-07 -9.6146858e-11  1.4631555e-10
      1469   1.469          2.0507105e-13  9.8670088e-09 -3223.7938      8.2438366e-15  4.9770056      4.3102133      211.72399     -32.517952     -32.517952      2.3626e-07     4.9707716e-07  1.4282999e-10  7.6892033e-10
Loop time of 0.136074 on 2 procs for 10 steps with 312 atoms

105.1% CPU use with 1 MPI tasks x 2 OpenMP threads

Minimization stats:
  Stopping criterion = force tolerance
  Energy initial, next-to-last, final = 
     -3223.79378527434  -3223.79378527435  -3223.79378527435
  Force two-norm initial, final = 3.7670726e-07 9.8897126e-09
  Force max component initial, final = 3.7657612e-07 1.393168e-09
  Final line search alpha, max atom move = 1 1.393168e-09
  Iterations, force evaluations = 10 20

MPI task timing breakdown:
Section |  min time  |  avg time  |  max time  |%varavg| %total
---------------------------------------------------------------
Pair    | 0.1345     | 0.1345     | 0.1345     |   0.0 | 98.84
Neigh   | 0          | 0          | 0          |   0.0 |  0.00
Comm    | 0.00038963 | 0.00038963 | 0.00038963 |   0.0 |  0.29
Output  | 1.1933e-05 | 1.1933e-05 | 1.1933e-05 |   0.0 |  0.01
Modify  | 0          | 0          | 0          |   0.0 |  0.00
Other   |            | 0.001173   |            |       |  0.86

Nlocal:            312 ave         312 max         312 min
Histogram: 1 0 0 0 0 0 0 0 0 0
Nghost:           6672 ave        6672 max        6672 min
Histogram: 1 0 0 0 0 0 0 0 0 0
Neighs:              0 ave           0 max           0 min
Histogram: 1 0 0 0 0 0 0 0 0 0
FullNghs:        35400 ave       35400 max       35400 min
Histogram: 1 0 0 0 0 0 0 0 0 0

Total # of neighbors = 35400
Ave neighs/atom = 113.46154
Neighbor list builds = 0
Dangerous builds = 0
unfix           3
min_style       fire
minimize        0.0 1.0e-8 2000 4000
Switching to 'neigh_modify every 1 delay 0 check yes' setting during minimization
  Parameters for fire:
    dmax  delaystep dtgrow dtshrink alpha0 alphashrink tmax tmin   integrator   halfstepback   abcfire  
     0.1     20      1.1     0.5     0.25     0.99      10  0.02 eulerimplicit      yes          no     
Per MPI rank memory allocation (min/avg/max) = 4.497 | 4.497 | 4.497 Mbytes
   Step          Time           Temp          Fnorm          PotEng         KinEng           Lx             Ly             Lz            Pxx            Pyy            Pzz            Pxy            Pxz            Pyz      
      1469   1.469          0              9.8670325e-09 -3223.7938      0              4.9770056      4.3102133      211.72399     -32.517952     -32.517952      2.3574788e-07  4.9721588e-07  1.7623661e-10  7.5336256e-10
      1470   1.47           1.1019405e-19  9.8593757e-09 -3223.7938      4.4297904e-21  4.9770056      4.3102133      211.72399     -32.517952     -32.517952      2.3183715e-07  4.9727713e-07  1.9158878e-10  7.7679224e-10
Loop time of 0.0191858 on 2 procs for 1 steps with 312 atoms

96.1% CPU use with 1 MPI tasks x 2 OpenMP threads

Minimization stats:
  Stopping criterion = force tolerance
  Energy initial, next-to-last, final = 
     -3223.79378527435  -3223.79378527435  -3223.79378527435
  Force two-norm initial, final = 9.8670325e-09 9.8593757e-09
  Force max component initial, final = 1.3929047e-09 1.391982e-09
  Final line search alpha, max atom move = 0 0
  Iterations, force evaluations = 1 2

MPI task timing breakdown:
Section |  min time  |  avg time  |  max time  |%varavg| %total
---------------------------------------------------------------
Pair    | 0.019084   | 0.019084   | 0.019084   |   0.0 | 99.47
Neigh   | 0          | 0          | 0          |   0.0 |  0.00
Comm    | 6.4234e-05 | 6.4234e-05 | 6.4234e-05 |   0.0 |  0.33
Output  | 0          | 0          | 0          |   0.0 |  0.00
Modify  | 0          | 0          | 0          |   0.0 |  0.00
Other   |            | 3.708e-05  |            |       |  0.19

Nlocal:            312 ave         312 max         312 min
Histogram: 1 0 0 0 0 0 0 0 0 0
Nghost:           6672 ave        6672 max        6672 min
Histogram: 1 0 0 0 0 0 0 0 0 0
Neighs:              0 ave           0 max           0 min
Histogram: 1 0 0 0 0 0 0 0 0 0
FullNghs:        35400 ave       35400 max       35400 min
Histogram: 1 0 0 0 0 0 0 0 0 0

Total # of neighbors = 35400
Ave neighs/atom = 113.46154
Neighbor list builds = 0
Dangerous builds = 0

fix             3 all box/relax z 0.0 vmax 0.001
min_style       cg
minimize        0.0 1.0e-8 1000 2000
Switching to 'neigh_modify every 1 delay 0 check yes' setting during minimization
WARNING: Energy due to 3 extra global DOFs will be included in minimizer energies
 (src/min.cpp:219)
Per MPI rank memory allocation (min/avg/max) = 5.622 | 5.622 | 5.622 Mbytes
   Step          Time           Temp          Fnorm          PotEng         KinEng           Lx             Ly             Lz            Pxx            Pyy            Pzz            Pxy            Pxz            Pyz      
      1470   1.47           1.1019405e-19  9.8597324e-09 -3223.7938      4.4297904e-21  4.9770056      4.3102133      211.72399     -32.517952     -32.517952      2.3182211e-07  4.971356e-07   2.9290525e-10  7.7808464e-10
      1472   1.472          1.1019405e-19  9.8842697e-09 -3223.7938      4.4297904e-21  4.9770056      4.3102133      211.72399     -32.51795      -32.51795       7.1704646e-08  4.9679064e-07 -1.5144599e-10 -6.8340641e-12
Loop time of 0.0307012 on 2 procs for 2 steps with 312 atoms

103.5% CPU use with 1 MPI tasks x 2 OpenMP threads

Minimization stats:
  Stopping criterion = force tolerance
  Energy initial, next-to-last, final = 
     -3223.79378527435  -3223.79378527435  -3223.79378527434
  Force two-norm initial, final = 9.8816093e-09 9.8863596e-09
  Force max component initial, final = 1.3918057e-09 2.5027247e-09
  Final line search alpha, max atom move = 1 2.5027247e-09
  Iterations, force evaluations = 2 4

MPI task timing breakdown:
Section |  min time  |  avg time  |  max time  |%varavg| %total
---------------------------------------------------------------
Pair    | 0.03035    | 0.03035    | 0.03035    |   0.0 | 98.86
Neigh   | 0          | 0          | 0          |   0.0 |  0.00
Comm    | 9.1937e-05 | 9.1937e-05 | 9.1937e-05 |   0.0 |  0.30
Output  | 0          | 0          | 0          |   0.0 |  0.00
Modify  | 0          | 0          | 0          |   0.0 |  0.00
Other   |            | 0.0002595  |            |       |  0.85

Nlocal:            312 ave         312 max         312 min
Histogram: 1 0 0 0 0 0 0 0 0 0
Nghost:           6672 ave        6672 max        6672 min
Histogram: 1 0 0 0 0 0 0 0 0 0
Neighs:              0 ave           0 max           0 min
Histogram: 1 0 0 0 0 0 0 0 0 0
FullNghs:        35400 ave       35400 max       35400 min
Histogram: 1 0 0 0 0 0 0 0 0 0

Total # of neighbors = 35400
Ave neighs/atom = 113.46154
Neighbor list builds = 0
Dangerous builds = 0
unfix           3
min_style       fire
minimize        0.0 1.0e-8 2000 4000
Switching to 'neigh_modify every 1 delay 0 check yes' setting during minimization
  Parameters for fire:
    dmax  delaystep dtgrow dtshrink alpha0 alphashrink tmax tmin   integrator   halfstepback   abcfire  
     0.1     20      1.1     0.5     0.25     0.99      10  0.02 eulerimplicit      yes          no     
Per MPI rank memory allocation (min/avg/max) = 4.497 | 4.497 | 4.497 Mbytes
   Step          Time           Temp          Fnorm          PotEng         KinEng           Lx             Ly             Lz            Pxx            Pyy            Pzz            Pxy            Pxz            Pyz      
      1472   1.472          0              9.8841934e-09 -3223.7938      0              4.9770056      4.3102133      211.72399     -32.51795      -32.51795       7.1779214e-08  4.9680192e-07 -1.5763386e-10 -2.4301071e-11
      1473   1.473          9.5133615e-20  9.8738012e-09 -3223.7938      3.8243623e-21  4.9770056      4.3102133      211.72399     -32.51795      -32.51795       7.4243706e-08  4.9681304e-07 -1.0726935e-10 -3.6539724e-11
Loop time of 0.0183233 on 2 procs for 1 steps with 312 atoms

101.8% CPU use with 1 MPI tasks x 2 OpenMP threads

Minimization stats:
  Stopping criterion = force tolerance
  Energy initial, next-to-last, final = 
     -3223.79378527434  -3223.79378527434  -3223.79378527434
  Force two-norm initial, final = 9.8841934e-09 9.8738012e-09
  Force max component initial, final = 2.502712e-09 2.5004137e-09
  Final line search alpha, max atom move = 0 0
  Iterations, force evaluations = 1 2

MPI task timing breakdown:
Section |  min time  |  avg time  |  max time  |%varavg| %total
---------------------------------------------------------------
Pair    | 0.018232   | 0.018232   | 0.018232   |   0.0 | 99.50
Neigh   | 0          | 0          | 0          |   0.0 |  0.00
Comm    | 5.6981e-05 | 5.6981e-05 | 5.6981e-05 |   0.0 |  0.31
Output  | 0          | 0          | 0          |   0.0 |  0.00
Modify  | 0          | 0          | 0          |   0.0 |  0.00
Other   |            | 3.427e-05  |            |       |  0.19

Nlocal:            312 ave         312 max         312 min
Histogram: 1 0 0 0 0 0 0 0 0 0
Nghost:           6672 ave        6672 max        6672 min
Histogram: 1 0 0 0 0 0 0 0 0 0
Neighs:              0 ave           0 max           0 min
Histogram: 1 0 0 0 0 0 0 0 0 0
FullNghs:        35400 ave       35400 max       35400 min
Histogram: 1 0 0 0 0 0 0 0 0 0

Total # of neighbors = 35400
Ave neighs/atom = 113.46154
Neighbor list builds = 0
Dangerous builds = 0

fix             3 all box/relax z 0.0 vmax 0.001
min_style       cg
minimize        0.0 1.0e-8 1000 2000
Switching to 'neigh_modify every 1 delay 0 check yes' setting during minimization
WARNING: Energy due to 3 extra global DOFs will be included in minimizer energies
 (src/min.cpp:219)
Per MPI rank memory allocation (min/avg/max) = 5.622 | 5.622 | 5.622 Mbytes
   Step          Time           Temp          Fnorm          PotEng         KinEng           Lx             Ly             Lz            Pxx            Pyy            Pzz            Pxy            Pxz            Pyz      
      1473   1.473          9.5133615e-20  9.8734254e-09 -3223.7938      3.8243623e-21  4.9770056      4.3102133      211.72399     -32.51795      -32.51795       7.4520672e-08  4.9681375e-07 -1.487437e-10  -7.3901886e-11
      1475   1.475          9.5133615e-20  6.8136522e-09 -3223.7938      3.8243623e-21  4.9770056      4.3102133      211.72399     -32.51795      -32.51795       1.9054483e-07  4.9686349e-07 -3.6343906e-11 -2.4908108e-11
Loop time of 0.030945 on 2 procs for 2 steps with 312 atoms

102.9% CPU use with 1 MPI tasks x 2 OpenMP threads

Minimization stats:
  Stopping criterion = force tolerance
  Energy initial, next-to-last, final = 
     -3223.79378527434  -3223.79378527434  -3223.79378527434
  Force two-norm initial, final = 9.8756851e-09 6.8350297e-09
  Force max component initial, final = 2.5003927e-09 1.6480221e-09
  Final line search alpha, max atom move = 1 1.6480221e-09
  Iterations, force evaluations = 2 4

MPI task timing breakdown:
Section |  min time  |  avg time  |  max time  |%varavg| %total
---------------------------------------------------------------
Pair    | 0.030597   | 0.030597   | 0.030597   |   0.0 | 98.88
Neigh   | 0          | 0          | 0          |   0.0 |  0.00
Comm    | 9.9044e-05 | 9.9044e-05 | 9.9044e-05 |   0.0 |  0.32
Output  | 0          | 0          | 0          |   0.0 |  0.00
Modify  | 0          | 0          | 0          |   0.0 |  0.00
Other   |            | 0.0002489  |            |       |  0.80

Nlocal:            312 ave         312 max         312 min
Histogram: 1 0 0 0 0 0 0 0 0 0
Nghost:           6672 ave        6672 max        6672 min
Histogram: 1 0 0 0 0 0 0 0 0 0
Neighs:              0 ave           0 max           0 min
Histogram: 1 0 0 0 0 0 0 0 0 0
FullNghs:        35400 ave       35400 max       35400 min
Histogram: 1 0 0 0 0 0 0 0 0 0

Total # of neighbors = 35400
Ave neighs/atom = 113.46154
Neighbor list builds = 0
Dangerous builds = 0
unfix           3
min_style       fire
minimize        0.0 1.0e-8 2000 4000
Switching to 'neigh_modify every 1 delay 0 check yes' setting during minimization
  Parameters for fire:
    dmax  delaystep dtgrow dtshrink alpha0 alphashrink tmax tmin   integrator   halfstepback   abcfire  
     0.1     20      1.1     0.5     0.25     0.99      10  0.02 eulerimplicit      yes          no     
Per MPI rank memory allocation (min/avg/max) = 4.497 | 4.497 | 4.497 Mbytes
   Step          Time           Temp          Fnorm          PotEng         KinEng           Lx             Ly             Lz            Pxx            Pyy            Pzz            Pxy            Pxz            Pyz      
      1475   1.475          0              6.8135579e-09 -3223.7938      0              4.9770056      4.3102133      211.72399     -32.51795      -32.51795       1.9053731e-07  4.9685346e-07  2.8589495e-12 -5.8618255e-11
      1476   1.476          5.1185475e-20  6.8093084e-09 -3223.7938      2.0576512e-21  4.9770056      4.3102133      211.72399     -32.51795      -32.51795       1.8888053e-07  4.9682315e-07  4.3628352e-11 -8.4201937e-13
Loop time of 0.0187041 on 2 procs for 1 steps with 312 atoms

107.8% CPU use with 1 MPI tasks x 2 OpenMP threads

Minimization stats:
  Stopping criterion = force tolerance
  Energy initial, next-to-last, final = 
     -3223.79378527435  -3223.79378527435  -3223.79378527435
  Force two-norm initial, final = 6.8135579e-09 6.8093084e-09
  Force max component initial, final = 1.6480388e-09 1.6468573e-09
  Final line search alpha, max atom move = 0 0
  Iterations, force evaluations = 1 2

MPI task timing breakdown:
Section |  min time  |  avg time  |  max time  |%varavg| %total
---------------------------------------------------------------
Pair    | 0.018615   | 0.018615   | 0.018615   |   0.0 | 99.52
Neigh   | 0          | 0          | 0          |   0.0 |  0.00
Comm    | 5.5975e-05 | 5.5975e-05 | 5.5975e-05 |   0.0 |  0.30
Output  | 0          | 0          | 0          |   0.0 |  0.00
Modify  | 0          | 0          | 0          |   0.0 |  0.00
Other   |            | 3.313e-05  |            |       |  0.18

Nlocal:            312 ave         312 max         312 min
Histogram: 1 0 0 0 0 0 0 0 0 0
Nghost:           6672 ave        6672 max        6672 min
Histogram: 1 0 0 0 0 0 0 0 0 0
Neighs:              0 ave           0 max           0 min
Histogram: 1 0 0 0 0 0 0 0 0 0
FullNghs:        35400 ave       35400 max       35400 min
Histogram: 1 0 0 0 0 0 0 0 0 0

Total # of neighbors = 35400
Ave neighs/atom = 113.46154
Neighbor list builds = 0
Dangerous builds = 0

fix             3 all box/relax z 0.0 vmax 0.001
min_style       cg
minimize        0.0 1.0e-8 1000 2000
Switching to 'neigh_modify every 1 delay 0 check yes' setting during minimization
WARNING: Energy due to 3 extra global DOFs will be included in minimizer energies
 (src/min.cpp:219)
Per MPI rank memory allocation (min/avg/max) = 5.622 | 5.622 | 5.622 Mbytes
   Step          Time           Temp          Fnorm          PotEng         KinEng           Lx             Ly             Lz            Pxx            Pyy            Pzz            Pxy            Pxz            Pyz      
      1476   1.476          5.1185475e-20  6.8092691e-09 -3223.7938      2.0576512e-21  4.9770056      4.3102133      211.72399     -32.51795      -32.51795       1.8878842e-07  4.9678414e-07  1.9699337e-11  4.6408974e-12
      1478   1.478          5.1185475e-20  7.8467066e-09 -3223.7938      2.0576512e-21  4.9770056      4.3102133      211.72399     -32.517949     -32.517949      6.0381013e-08  4.9681837e-07  8.529852e-11   4.2521978e-11
Loop time of 0.0318178 on 2 procs for 2 steps with 312 atoms

103.0% CPU use with 1 MPI tasks x 2 OpenMP threads

Minimization stats:
  Stopping criterion = force tolerance
  Energy initial, next-to-last, final = 
     -3223.79378527434  -3223.79378527434  -3223.79378527435
  Force two-norm initial, final = 6.8302684e-09 7.8485733e-09
  Force max component initial, final = 1.6468581e-09 1.984059e-09
  Final line search alpha, max atom move = 1 1.984059e-09
  Iterations, force evaluations = 2 4

MPI task timing breakdown:
Section |  min time  |  avg time  |  max time  |%varavg| %total
---------------------------------------------------------------
Pair    | 0.031472   | 0.031472   | 0.031472   |   0.0 | 98.91
Neigh   | 0          | 0          | 0          |   0.0 |  0.00
Comm    | 9.3978e-05 | 9.3978e-05 | 9.3978e-05 |   0.0 |  0.30
Output  | 0          | 0          | 0          |   0.0 |  0.00
Modify  | 0          | 0          | 0          |   0.0 |  0.00
Other   |            | 0.0002521  |            |       |  0.79

Nlocal:            312 ave         312 max         312 min
Histogram: 1 0 0 0 0 0 0 0 0 0
Nghost:           6672 ave        6672 max        6672 min
Histogram: 1 0 0 0 0 0 0 0 0 0
Neighs:              0 ave           0 max           0 min
Histogram: 1 0 0 0 0 0 0 0 0 0
FullNghs:        35400 ave       35400 max       35400 min
Histogram: 1 0 0 0 0 0 0 0 0 0

Total # of neighbors = 35400
Ave neighs/atom = 113.46154
Neighbor list builds = 0
Dangerous builds = 0
unfix           3
min_style       fire
minimize        0.0 1.0e-8 2000 4000
Switching to 'neigh_modify every 1 delay 0 check yes' setting during minimization
  Parameters for fire:
    dmax  delaystep dtgrow dtshrink alpha0 alphashrink tmax tmin   integrator   halfstepback   abcfire  
     0.1     20      1.1     0.5     0.25     0.99      10  0.02 eulerimplicit      yes          no     
Per MPI rank memory allocation (min/avg/max) = 4.497 | 4.497 | 4.497 Mbytes
   Step          Time           Temp          Fnorm          PotEng         KinEng           Lx             Ly             Lz            Pxx            Pyy            Pzz            Pxy            Pxz            Pyz      
      1478   1.478          0              7.8470476e-09 -3223.7938      0              4.9770056      4.3102133      211.72399     -32.517949     -32.517949      6.019428e-08   4.9684054e-07  1.0335298e-10 -7.2805302e-11
      1479   1.479          5.7632371e-20  7.8393162e-09 -3223.7938      2.3168158e-21  4.9770056      4.3102133      211.72399     -32.517949     -32.517949      6.1711952e-08  4.9684304e-07  3.7362162e-11 -1.0701479e-10
Loop time of 0.022984 on 2 procs for 1 steps with 312 atoms

78.8% CPU use with 1 MPI tasks x 2 OpenMP threads

Minimization stats:
  Stopping criterion = force tolerance
  Energy initial, next-to-last, final = 
     -3223.79378527434  -3223.79378527434  -3223.79378527434
  Force two-norm initial, final = 7.8470476e-09 7.8393162e-09
  Force max component initial, final = 1.9840719e-09 1.9822888e-09
  Final line search alpha, max atom move = 0 0
  Iterations, force evaluations = 1 2

MPI task timing breakdown:
Section |  min time  |  avg time  |  max time  |%varavg| %total
---------------------------------------------------------------
Pair    | 0.022805   | 0.022805   | 0.022805   |   0.0 | 99.22
Neigh   | 0          | 0          | 0          |   0.0 |  0.00
Comm    | 9.5412e-05 | 9.5412e-05 | 9.5412e-05 |   0.0 |  0.42
Output  | 0          | 0          | 0          |   0.0 |  0.00
Modify  | 0          | 0          | 0          |   0.0 |  0.00
Other   |            | 8.381e-05  |            |       |  0.36

Nlocal:            312 ave         312 max         312 min
Histogram: 1 0 0 0 0 0 0 0 0 0
Nghost:           6672 ave        6672 max        6672 min
Histogram: 1 0 0 0 0 0 0 0 0 0
Neighs:              0 ave           0 max           0 min
Histogram: 1 0 0 0 0 0 0 0 0 0
FullNghs:        35400 ave       35400 max       35400 min
Histogram: 1 0 0 0 0 0 0 0 0 0

Total # of neighbors = 35400
Ave neighs/atom = 113.46154
Neighbor list builds = 0
Dangerous builds = 0

fix             3 all box/relax z 0.0 vmax 0.001
min_style       cg
minimize        0.0 1.0e-8 1000 2000
Switching to 'neigh_modify every 1 delay 0 check yes' setting during minimization
WARNING: Energy due to 3 extra global DOFs will be included in minimizer energies
 (src/min.cpp:219)
Per MPI rank memory allocation (min/avg/max) = 5.622 | 5.622 | 5.622 Mbytes
   Step          Time           Temp          Fnorm          PotEng         KinEng           Lx             Ly             Lz            Pxx            Pyy            Pzz            Pxy            Pxz            Pyz      
      1479   1.479          5.7632371e-20  7.8396718e-09 -3223.7938      2.3168158e-21  4.9770056      4.3102133      211.72399     -32.517949     -32.517949      6.1751429e-08  4.9679746e-07  7.1199591e-11 -7.2648648e-11
      1480   1.48           5.7632371e-20  4.9991155e-09 -3223.7938      2.3168158e-21  4.9770056      4.3102133      211.72399     -32.517961     -32.517961     -2.1008793e-05  4.9680059e-07  7.2217847e-11 -1.8015298e-11
      1481   1.481          5.7632371e-20  5.8226721e-09 -3223.7938      2.3168158e-21  4.9770056      4.3102133      211.72399     -32.517949     -32.517949      1.655891e-07   4.9674756e-07  8.5533502e-11 -7.1689137e-11
Loop time of 0.032483 on 2 procs for 2 steps with 312 atoms

104.3% CPU use with 1 MPI tasks x 2 OpenMP threads

Minimization stats:
  Stopping criterion = force tolerance
  Energy initial, next-to-last, final = 
     -3223.79378527434  -3223.79378527434  -3223.79378527435
  Force two-norm initial, final = 7.841626e-09 5.8415633e-09
  Force max component initial, final = 1.9822937e-09 1.3763127e-09
  Final line search alpha, max atom move = 1 1.3763127e-09
  Iterations, force evaluations = 2 4

MPI task timing breakdown:
Section |  min time  |  avg time  |  max time  |%varavg| %total
---------------------------------------------------------------
Pair    | 0.032124   | 0.032124   | 0.032124   |   0.0 | 98.89
Neigh   | 0          | 0          | 0          |   0.0 |  0.00
Comm    | 8.99e-05   | 8.99e-05   | 8.99e-05   |   0.0 |  0.28
Output  | 1.1178e-05 | 1.1178e-05 | 1.1178e-05 |   0.0 |  0.03
Modify  | 0          | 0          | 0          |   0.0 |  0.00
Other   |            | 0.0002581  |            |       |  0.79

Nlocal:            312 ave         312 max         312 min
Histogram: 1 0 0 0 0 0 0 0 0 0
Nghost:           6672 ave        6672 max        6672 min
Histogram: 1 0 0 0 0 0 0 0 0 0
Neighs:              0 ave           0 max           0 min
Histogram: 1 0 0 0 0 0 0 0 0 0
FullNghs:        35400 ave       35400 max       35400 min
Histogram: 1 0 0 0 0 0 0 0 0 0

Total # of neighbors = 35400
Ave neighs/atom = 113.46154
Neighbor list builds = 0
Dangerous builds = 0
unfix           3
min_style       fire
minimize        0.0 1.0e-8 2000 4000
Switching to 'neigh_modify every 1 delay 0 check yes' setting during minimization
  Parameters for fire:
    dmax  delaystep dtgrow dtshrink alpha0 alphashrink tmax tmin   integrator   halfstepback   abcfire  
     0.1     20      1.1     0.5     0.25     0.99      10  0.02 eulerimplicit      yes          no     
Per MPI rank memory allocation (min/avg/max) = 4.497 | 4.497 | 4.497 Mbytes
   Step          Time           Temp          Fnorm          PotEng         KinEng           Lx             Ly             Lz            Pxx            Pyy            Pzz            Pxy            Pxz            Pyz      
      1481   1.481          0              5.822608e-09  -3223.7938      0              4.9770056      4.3102133      211.72399     -32.517949     -32.517949      1.6482212e-07  4.9649684e-07  3.0042468e-10  1.1739316e-11
      1482   1.482          3.7528471e-20  5.8188402e-09 -3223.7938      1.508641e-21   4.9770056      4.3102133      211.72399     -32.517949     -32.517949      1.6378256e-07  4.9656161e-07  3.1988903e-10 -1.3511474e-12
Loop time of 0.0192261 on 2 procs for 1 steps with 312 atoms

107.9% CPU use with 1 MPI tasks x 2 OpenMP threads

Minimization stats:
  Stopping criterion = force tolerance
  Energy initial, next-to-last, final = 
     -3223.79378527435  -3223.79378527435  -3223.79378527435
  Force two-norm initial, final = 5.822608e-09 5.8188402e-09
  Force max component initial, final = 1.3763297e-09 1.3753578e-09
  Final line search alpha, max atom move = 0 0
  Iterations, force evaluations = 1 2

MPI task timing breakdown:
Section |  min time  |  avg time  |  max time  |%varavg| %total
---------------------------------------------------------------
Pair    | 0.019136   | 0.019136   | 0.019136   |   0.0 | 99.53
Neigh   | 0          | 0          | 0          |   0.0 |  0.00
Comm    | 5.5008e-05 | 5.5008e-05 | 5.5008e-05 |   0.0 |  0.29
Output  | 0          | 0          | 0          |   0.0 |  0.00
Modify  | 0          | 0          | 0          |   0.0 |  0.00
Other   |            | 3.468e-05  |            |       |  0.18

Nlocal:            312 ave         312 max         312 min
Histogram: 1 0 0 0 0 0 0 0 0 0
Nghost:           6672 ave        6672 max        6672 min
Histogram: 1 0 0 0 0 0 0 0 0 0
Neighs:              0 ave           0 max           0 min
Histogram: 1 0 0 0 0 0 0 0 0 0
FullNghs:        35400 ave       35400 max       35400 min
Histogram: 1 0 0 0 0 0 0 0 0 0

Total # of neighbors = 35400
Ave neighs/atom = 113.46154
Neighbor list builds = 0
Dangerous builds = 0


write_data      fire_cg_${name}.data
write_data      fire_cg_lmps.data
System init for write_data ...

write_data      bi_minimised.data
System init for write_data ...

print """- step: $(step)
  atoms: $(atoms)
  temp: $(temp)
  press: $(press)
  pe: $(pe)
  ke: $(ke)
  etotal: $(etotal)
  vol: $(vol)
  avecx: $(avecx)
  avecy: $(avecy)
  avecz: $(avecz)
  bvecx: $(bvecx)
  bvecy: $(bvecy)
  bvecz: $(bvecz)
  cvecx: $(cvecx)
  cvecy: $(cvecy)
  cvecz: $(cvecz)
  lx: $(lx)
  ly: $(ly)
  lz: $(lz)
  cella: $(cella)
  cellb: $(cellb)
  cellc: $(cellc)
  cellalpha: $(cellalpha)
  cellbeta: $(cellbeta)
  cellgamma: $(cellgamma)
  pxx: $(pxx)
  pyy: $(pyy)
  pzz: $(pzz)
  pxy: $(pxy)
  pyz: $(pyz)
  pxz: $(pxz)
  xlo: $(xlo)
  xhi: $(xhi)
  ylo: $(ylo)
  yhi: $(yhi)
  zlo: $(zlo)
  zhi: $(zhi)
  xy: $(xy)
  xz: $(xz)
  yz: $(yz)
""" file bi_minimised.data.yaml screen yes universe no
- step: 1482
  atoms: 312
  temp: 3.7528471280255347922e-20
  press: -21.678632647227292551
  pe: -3223.793785274347556
  ke: 1.5086409838266982146e-21
  etotal: -3223.793785274347556
  vol: 4541.8937189988928367
  avecx: 4.9770056176543331361
  avecy: 0
  avecz: 0
  bvecx: -2.4885028088300003013
  bvecy: 4.3102132996662358977
  bvecz: 0
  cvecx: 0
  cvecy: 0
  cvecz: 211.72399198148127653
  lx: 4.9770056176543331361
  ly: 4.3102132996662358977
  lz: 211.72399198148127653
  cella: 4.9770056176543331361
  cellb: 4.9770056176555090843
  cellc: 211.72399198148127653
  cellalpha: 90
  cellbeta: 90
  cellgamma: 120.00000000002985701
  pxx: -32.51794910141722994
  pyy: -32.517949004047203232
  pzz: 1.6378255743479533866e-07
  pxy: 4.9656161286469286144e-07
  pyz: -1.3511473532840349038e-12
  pxz: 3.1988903135314825397e-10
  xlo: -0.019038925427171102256
  xhi: 4.9579666922271616869
  ylo: -0.016488193083117452103
  yhi: 4.293725106583118567
  zlo: -3.7032192287908642925
  zhi: 208.02077275269041934
  xy: -2.4885028088300003013
  xz: 0
  yz: 0

[GRACE:debug, proc #0]: Data preparation timer: 1.0778e+06 mcs, graph execution time: 1.85408e+07 mcs, data preparation time fraction: 5.49 %
Total wall time: 0:00:23
