
thermo          10
thermo_style    custom step time temp fnorm pe ke lx ly lz pxx pyy pzz pxy pxz pyz

timestep        0.001

min_style       fire
minimize        0.0 1.0e-8 2000 4000

CITE-CITE-CITE-CITE-CITE-CITE-CITE-CITE-CITE-CITE-CITE-CITE-CITE

Your simulation uses code contributions which should be cited:

- Type Label Framework: https://doi.org/10.1021/acs.jpcb.3c08419

@Article{Gissinger24,
 author = {Jacob R. Gissinger, Ilia Nikiforov, Yaser Afshar, Brendon Waters, Moon-ki Choi, Daniel S. Karls, Alexander Stukowski, Wonpil Im, Hendrik Heinz, Axel Kohlmeyer, and Ellad B. Tadmor},
 title = {Type Label Framework for Bonded Force Fields in LAMMPS},
 journal = {J. Phys. Chem. B},
 year =    2024,
 volume =  128,
 number =  13,
 pages =   {3282–-3297}
}

CITE-CITE-CITE-CITE-CITE-CITE-CITE-CITE-CITE-CITE-CITE-CITE-CITE

Switching to 'neigh_modify every 1 delay 0 check yes' setting during minimization
Neighbor list info ...
  update: every = 1 steps, delay = 0 steps, check = yes
  max neighbors/atom: 2000, page size: 100000
  master list distance cutoff = 7.4
  ghost atom cutoff = 7.4
  binsize = 3.7, bins = 2 8 924
  1 neighbor lists, perpetual/occasional/extra = 1 0 0
  (1) pair grace, perpetual
      attributes: full, newton on
      pair build: full/bin/atomonly
      stencil: full/bin/3d
      bin: standard
  Parameters for fire:
    dmax  delaystep dtgrow dtshrink alpha0 alphashrink tmax tmin   integrator   halfstepback   abcfire  
     0.1     20      1.1     0.5     0.25     0.99      10  0.02 eulerimplicit      yes          no     
[GRACE] Atoms padding: new num. of atoms = 32851 (incl. 0.989% fake atoms)
[GRACE] Neighbours padding: extending new num. of neighbours = 2092282 (incl. 0.990% fake neighbours)
Per MPI rank memory allocation (min/avg/max) = 59.34 | 59.34 | 59.34 Mbytes
   Step          Time           Temp          Fnorm          PotEng         KinEng           Lx             Ly             Lz            Pxx            Pyy            Pzz            Pxy            Pxz            Pyz      
         0   0              0              7.8564544     -336078.88      0              4.9770057      27.83345       3417.9639      21.664201      18.163785      44.775619     -5.0111056e-05  0.00010098852  0.9453182    
        10   0.01           0.03860434     7.3477844     -336079.08      0.16229984     4.9770057      27.83345       3417.9639      19.795803      16.500058      43.58107      -4.6845649e-05  0.00010420821  1.0430787    
        20   0.02           0.13748641     6.0701779     -336079.54      0.57801846     4.9770057      27.83345       3417.9639      15.455255      12.803275      41.134008     -3.8849209e-05  0.00011424877  1.2517974    
        30   0.070738431    0.31369965     3.4334018     -336080.37      1.3188518      4.9770057      27.83345       3417.9639      7.3706433      6.6589374      36.933328     -1.9255997e-05  0.00013138045  1.7205091    
        40   0.24463636     0.35266766     0.91203177    -336081.31      1.4826805      4.9770057      27.83345       3417.9639      2.83921        0.21073746     30.03964       7.045545e-06   6.1148408e-05  1.0798861    
        50   0.5            0.029586372    0.44405463    -336081.49      0.12438662     4.9770057      27.83345       3417.9639      3.3750827      1.8024903      19.252138     -1.5084606e-06  1.1588146e-05  0.14606132   
        60   0.6            0.010347674    0.15083072    -336081.54      0.043503548    4.9770057      27.83345       3417.9639      1.7811539     -1.5020441      19.238453     -3.2940664e-06  8.4183531e-06  0.14874424   
        70   0.7            0.0055611275   0.079478908   -336081.55      0.023380015    4.9770057      27.83345       3417.9639      1.9847948     -0.79480621     18.766491     -2.753916e-06   7.6470559e-06  0.13295344   
        80   0.8            0.0054217083   0.052363508   -336081.56      0.022793871    4.9770057      27.83345       3417.9639      1.8438734     -1.0459731      18.736165     -1.9614748e-06  6.761943e-06   0.11009314   
        90   0.9            0.0063099422   0.036949617   -336081.57      0.026528172    4.9770057      27.83345       3417.9639      1.8100576     -1.0633321      18.685737     -1.2425682e-06  6.2317262e-06  0.10366529   
       100   1              0.0073143695   0.027296715   -336081.58      0.030750971    4.9770057      27.83345       3417.9639      1.7639165     -1.1295855      18.644221     -5.5179037e-07  5.7415677e-06  0.10004      
       110   1.1            0.008144362    0.020385162   -336081.58      0.034240415    4.9770057      27.83345       3417.9639      1.7214562     -1.159969       18.624529     -1.8337599e-09  5.3288968e-06  0.097751533  
       120   1.2            0.0087070225   0.015581458   -336081.59      0.036605944    4.9770057      27.83345       3417.9639      1.6918446     -1.1805327      18.597921      4.0959388e-07  4.9623487e-06  0.094097359  
       130   1.3            0.0079854619   0.01278855    -336081.59      0.033572369    4.9770057      27.83345       3417.9639      1.6712311     -1.1971037      18.557621      4.7508958e-07  4.3594568e-06  0.084653223  
       140   1.4            0.0066363644   0.012582888   -336081.59      0.027900512    4.9770057      27.83345       3417.9639      1.6540157     -1.2188002      18.509617      3.3969669e-07  3.6772976e-06  0.074684465  
       150   1.5            0.0056923883   0.0095822825  -336081.59      0.02393186     4.9770057      27.83345       3417.9639      1.637214      -1.249527       18.467259      2.5693702e-07  3.1863075e-06  0.06342275   
       160   1.6            0.0048999413   0.0090987832  -336081.6       0.020600266    4.9770057      27.83345       3417.9639      1.6284473     -1.2563067      18.439229      1.7942977e-07  2.7984945e-06  0.058194706  
       170   1.7            0.0043807693   0.0066385769  -336081.6       0.01841757     4.9770057      27.83345       3417.9639      1.6176775     -1.2744883      18.415925      1.4559816e-07  2.5243653e-06  0.049433433  
       180   1.8            0.0040811157   0.0061443034  -336081.6       0.01715777     4.9770057      27.83345       3417.9639      1.6109677     -1.2818213      18.401899      1.4558199e-07  2.3389624e-06  0.045878441  
       190   1.9            0.0037892353   0.005287252   -336081.6       0.015930651    4.9770057      27.83345       3417.9639      1.6045214     -1.2890815      18.387871      1.3849791e-07  2.1719758e-06  0.042600862  
       200   2              0.0036506044   0.0044634231  -336081.6       0.015347821    4.9770057      27.83345       3417.9639      1.5981117     -1.299101       18.377889      1.5728751e-07  2.0583156e-06  0.04011031   
       210   2.1            0.0035519536   0.0043721769  -336081.6       0.014933074    4.9770057      27.83345       3417.9639      1.5932837     -1.3046409      18.370493      1.7944426e-07  1.9638319e-06  0.038732407  
       220   2.2            0.0034507231   0.0037155637  -336081.6       0.014507483    4.9770057      27.83345       3417.9639      1.588673      -1.3106428      18.362752      1.9611509e-07  1.8749924e-06  0.036690863  
       230   2.3            0.0034098384   0.0032345731  -336081.6       0.014335596    4.9770057      27.83345       3417.9639      1.5842097     -1.3167429      18.35712       2.2172592e-07  1.8075426e-06  0.034917048  
       240   2.4            0.0033705619   0.0031702736  -336081.6       0.01417047     4.9770057      27.83345       3417.9639      1.5809367     -1.3198354      18.352807      2.4464868e-07  1.7453616e-06  0.033802368  
       250   2.5            0.0033327691   0.0026922139  -336081.6       0.014011582    4.9770057      27.83345       3417.9639      1.5778142     -1.3227881      18.348758      2.6463918e-07  1.6866521e-06  0.033084154  
       260   2.6            0.0032982354   0.0025184098  -336081.6       0.013866396    4.9770057      27.83345       3417.9639      1.5750358     -1.3253465      18.345083      2.8265009e-07  1.6330975e-06  0.032118628  
       270   2.7            0.0032703829   0.002354881   -336081.6       0.013749299    4.9770057      27.83345       3417.9639      1.5723375     -1.3283624      18.341716      2.999907e-07   1.5837309e-06  0.031154793  
       280   2.8            0.0032396304   0.0021396732  -336081.6       0.013620009    4.9770057      27.83345       3417.9639      1.5699324     -1.330782       18.338682      3.140647e-07   1.536665e-06   0.030388626  
       290   2.9            0.0032078433   0.0019749091  -336081.6       0.013486371    4.9770057      27.83345       3417.9639      1.5678017     -1.3330227      18.335837      3.2716149e-07  1.4914781e-06  0.029603636  
       300   3              0.0031715479   0.0018656258  -336081.6       0.013333778    4.9770057      27.83345       3417.9639      1.5659007     -1.3349422      18.333194      3.3664494e-07  1.4471126e-06  0.028838852  
       310   3.1            0.00313244     0.0017686551  -336081.6       0.013169361    4.9770057      27.83345       3417.9639      1.5641427     -1.336399       18.330645      3.4442926e-07  1.4049004e-06  0.028228132  
       320   3.2            0.0030886897   0.0016499071  -336081.6       0.012985426    4.9770057      27.83345       3417.9639      1.5623312     -1.3387537      18.327988      3.5007926e-07  1.3629602e-06  0.027296199  
       330   3.3            0.0030407821   0.0015202656  -336081.6       0.012784014    4.9770057      27.83345       3417.9639      1.560866      -1.3401118      18.325591      3.5330702e-07  1.3211477e-06  0.026653845  
       340   3.4            0.0029909964   0.0014758192  -336081.6       0.012574706    4.9770057      27.83345       3417.9639      1.5594317     -1.3417077      18.323148      3.5467669e-07  1.2815489e-06  0.025847548  
       350   3.5            0.0029377301   0.0014089436  -336081.6       0.012350764    4.9770057      27.83345       3417.9639      1.5581297     -1.3432507      18.320796      3.5468452e-07  1.2423675e-06  0.02505401   
       360   3.6            0.0028810422   0.0013397752  -336081.6       0.012112438    4.9770057      27.83345       3417.9639      1.5568959     -1.3447535      18.318465      3.5290196e-07  1.2037665e-06  0.024320822  
       370   3.7            0.0028226516   0.0012549197  -336081.6       0.011866953    4.9770057      27.83345       3417.9639      1.5557981     -1.3460289      18.316294      3.5017316e-07  1.1662312e-06  0.023628159  
       380   3.8            0.0027636429   0.0012371036  -336081.6       0.011618869    4.9770057      27.83345       3417.9639      1.5548048     -1.3472011      18.314176      3.463884e-07   1.1301e-06     0.022965528  
       390   3.9            0.0027031302   0.0012026279  -336081.6       0.011364463    4.9770057      27.83345       3417.9639      1.5537631     -1.3486086      18.311992      3.4098452e-07  1.0945851e-06  0.022183392  
       400   4              0.0026417943   0.0011635044  -336081.6       0.011106595    4.9770057      27.83345       3417.9639      1.5529299     -1.3495701      18.310077      3.3458384e-07  1.0606062e-06  0.021585242  
       410   4.1            0.0025801464   0.0011063071  -336081.6       0.010847416    4.9770057      27.83345       3417.9639      1.5521109     -1.3507459      18.308051      3.2922564e-07  1.0277143e-06  0.02086202   
       420   4.2            0.0025198131   0.0011154893  -336081.6       0.010593763    4.9770057      27.83345       3417.9639      1.5513163     -1.351814       18.306172      3.2188586e-07  9.9598155e-07  0.020255329  
       430   4.3            0.0024602725   0.0010908232  -336081.6       0.010343444    4.9770057      27.83345       3417.9639      1.5506683     -1.3526416      18.304429      3.1552286e-07  9.6565893e-07  0.019686492  
       440   4.4            0.002402112    0.0010764443  -336081.6       0.010098926    4.9770057      27.83345       3417.9639      1.5499797     -1.3535502      18.302774      3.0745823e-07  9.3674868e-07  0.019120172  
       450   4.5            0.002345837    0.0010718258  -336081.6       0.0098623357   4.9770057      27.83345       3417.9639      1.5494307     -1.3543578      18.301176      3.0087374e-07  9.0937644e-07  0.018565779  
       460   4.6            0.0022913382   0.0010336795  -336081.61      0.0096332123   4.9770057      27.83345       3417.9639      1.5488153     -1.3552518      18.299676      2.9338489e-07  8.8340113e-07  0.018012263  
       470   4.7            0.0022392994   0.0010636232  -336081.61      0.0094144317   4.9770057      27.83345       3417.9639      1.5483503     -1.3559091      18.298332      2.8577507e-07  8.5833518e-07  0.017521167  
       480   4.8            0.0021893643   0.0010479235  -336081.61      0.0092044954   4.9770057      27.83345       3417.9639      1.5478852     -1.3564818      18.297091      2.7862625e-07  8.3503088e-07  0.017125178  
       490   4.9            0.0021418389   0.001041289   -336081.61      0.0090046895   4.9770057      27.83345       3417.9639      1.5474476     -1.3572359      18.295867      2.7217283e-07  8.1272888e-07  0.016620451  
       500   5              0.002096843    0.0010543622  -336081.61      0.0088155184   4.9770057      27.83345       3417.9639      1.5470822     -1.357642       18.294848      2.6595085e-07  7.9182769e-07  0.016285703  
       510   5.1            0.0020544118   0.0010805849  -336081.61      0.00863713     4.9770057      27.83345       3417.9639      1.5466843     -1.3583642      18.293821      2.5974772e-07  7.7231567e-07  0.015831311  
       520   5.2            0.0020143515   0.0010693667  -336081.61      0.0084687088   4.9770057      27.83345       3417.9639      1.5464022     -1.3586998      18.292964      2.5365912e-07  7.5375439e-07  0.015510863  
       530   5.3            0.0019766177   0.001091944   -336081.61      0.0083100688   4.9770057      27.83345       3417.9639      1.5460914     -1.3590878      18.29221       2.4745917e-07  7.3625105e-07  0.015225992  
       540   5.4            0.0019412669   0.0010919056  -336081.61      0.0081614478   4.9770057      27.83345       3417.9639      1.5458216     -1.3595651      18.291474      2.4127525e-07  7.1991035e-07  0.014868213  
       550   5.5            0.0019080742   0.0011364592  -336081.61      0.0080218992   4.9770057      27.83345       3417.9639      1.5455894     -1.3599704      18.290839      2.3602855e-07  7.0449327e-07  0.014512846  
       560   5.6            0.0018769848   0.0011535918  -336081.61      0.0078911936   4.9770057      27.83345       3417.9639      1.5453706     -1.3603602      18.290302      2.3128976e-07  6.8992025e-07  0.014232758  
       570   5.7            0.0018478811   0.0011636429  -336081.61      0.0077688363   4.9770057      27.83345       3417.9639      1.545163      -1.3606334      18.289829      2.2659562e-07  6.7669888e-07  0.014008175  
       580   5.8            0.0018206259   0.0011839771  -336081.61      0.0076542505   4.9770057      27.83345       3417.9639      1.5450345     -1.3607878      18.289444      2.2193712e-07  6.6403141e-07  0.013795842  
       590   5.9            0.0017950979   0.0012126866  -336081.61      0.007546926    4.9770057      27.83345       3417.9639      1.544899      -1.3609799      18.289141      2.1672645e-07  6.5137993e-07  0.013583176  
       600   6              0.0017711653   0.0012478942  -336081.61      0.0074463087   4.9770057      27.83345       3417.9639      1.5447353     -1.3612288      18.288872      2.1238463e-07  6.4006216e-07  0.013359461  
       610   6.1            0.0017487186   0.001267322   -336081.61      0.0073519385   4.9770057      27.83345       3417.9639      1.5446771     -1.361343       18.2887        2.0851671e-07  6.2953637e-07  0.013161169  
       620   6.2            0.0017276023   0.0012694566  -336081.61      0.0072631619   4.9770057      27.83345       3417.9639      1.5446324     -1.3613564      18.288585      2.0386469e-07  6.1880112e-07  0.012986523  
       630   3.15           6.3989564e-09  0.0012779278  -336081.61      2.6902404e-08  4.9770057      27.83345       3417.9639      1.5446016     -1.371644       18.249864     -1.7303084e-07  1.8327853e-07  0.003120935  
       640   3.2            5.5902187e-08  0.0012221028  -336081.61      2.3502321e-07  4.9770057      27.83345       3417.9639      1.5446079     -1.3716201      18.249873     -1.7327606e-07  1.829243e-07   0.0031252861 
       650   4.758325       1.7126665e-07  0.00120276    -336081.61      7.2003689e-07  4.9770057      27.83345       3417.9639      1.5445968     -1.3716393      18.249864     -1.7320214e-07  1.8302862e-07  0.0031252019 
       660   6.6            5.7326025e-07  0.0011997342  -336081.61      2.4100928e-06  4.9770057      27.83345       3417.9639      1.5445755     -1.3716641      18.24985      -1.7302534e-07  1.8304518e-07  0.0031240344 
       670   6.7            1.2663597e-06  0.0011925182  -336081.61      5.3240122e-06  4.9770057      27.83345       3417.9639      1.5445559     -1.3716767      18.249832     -1.7273693e-07  1.8310388e-07  0.0031224061 
       680   6.8            2.2701919e-06  0.0011849072  -336081.61      9.5443097e-06  4.9770057      27.83345       3417.9639      1.5445252     -1.3717         18.249808     -1.7232041e-07  1.8313444e-07  0.0031200311 
       690   6.9            3.600083e-06   0.0011763646  -336081.61      1.5135419e-05  4.9770057      27.83345       3417.9639      1.5444869     -1.371728       18.249778     -1.7176294e-07  1.8328055e-07  0.0031168788 
       700   7              5.2655848e-06  0.001166856   -336081.61      2.2137499e-05  4.9770057      27.83345       3417.9639      1.5444399     -1.3717623      18.249742     -1.71041e-07    1.8340693e-07  0.003112923  
       710   7.1            7.2724789e-06  0.0011563942  -336081.61      3.0574856e-05  4.9770057      27.83345       3417.9639      1.5443844     -1.3718025      18.249701     -1.7021593e-07  1.8347824e-07  0.0031081436 
       720   7.2            9.6221359e-06  0.0011450735  -336081.61      4.0453251e-05  4.9770057      27.83345       3417.9639      1.5443207     -1.3718485      18.249654     -1.6921467e-07  1.8356293e-07  0.0031025395 
       730   7.3            1.2312873e-05  0.0011330108  -336081.61      5.1765613e-05  4.9770057      27.83345       3417.9639      1.5442489     -1.3719003      18.249603     -1.6810415e-07  1.8370326e-07  0.0030961166 
       740   7.4            1.5340265e-05  0.0011203125  -336081.61      6.449333e-05   4.9770057      27.83345       3417.9639      1.5441692     -1.3719576      18.249546     -1.6700485e-07  1.8385619e-07  0.0030888934 
       750   7.5            1.8697503e-05  0.0011070689  -336081.61      7.8607783e-05  4.9770057      27.83345       3417.9639      1.5440818     -1.3720205      18.249485     -1.6536496e-07  1.8385781e-07  0.0030809001 
       760   7.6            2.2375534e-05  0.0010933667  -336081.61      9.4070911e-05  4.9770057      27.83345       3417.9639      1.543987      -1.3720888      18.24942      -1.6413605e-07  1.8431016e-07  0.0030721817 
       770   7.7            2.6363639e-05  0.0010792824  -336081.61      0.00011083765  4.9770057      27.83345       3417.9639      1.543885      -1.3721624      18.249351     -1.6237367e-07  1.8424688e-07  0.0030627939 
       780   7.8            3.0649668e-05  0.0010648813  -336081.61      0.00012885691  4.9770057      27.83345       3417.9639      1.5437763     -1.3722411      18.249278     -1.6074262e-07  1.8463627e-07  0.0030528067 
       790   7.9            3.5220214e-05  0.0010502192  -336081.61      0.00014807234  4.9770057      27.83345       3417.9639      1.543661      -1.3723249      18.249201     -1.5883384e-07  1.84812e-07    0.0030422999 
       800   8              4.0060929e-05  0.001035343   -336081.61      0.0001684236   4.9770057      27.83345       3417.9639      1.5435396     -1.3724136      18.249121     -1.5712128e-07  1.8518628e-07  0.0030313647 
       810   8.1            4.5156699e-05  0.0010202904  -336081.61      0.00018984717  4.9770057      27.83345       3417.9639      1.5434124     -1.3725071      18.249038     -1.550032e-07   1.8528464e-07  0.0030201009 
       820   8.2            5.0491794e-05  0.0010050909  -336081.61      0.0002122769   4.9770057      27.83345       3417.9639      1.5432796     -1.3726052      18.248952     -1.5323803e-07  1.8557584e-07  0.0030086169 
       830   8.3            5.6050001e-05  0.00098976754 -336081.61      0.00023564464  4.9770057      27.83345       3417.9639      1.5431416     -1.3727079      18.248863     -1.5091717e-07  1.8583155e-07  0.0029970256 
       840   8.4            6.1814762e-05  0.00097433747 -336081.61      0.00025988077  4.9770057      27.83345       3417.9639      1.5429988     -1.3728149      18.248772     -1.4884148e-07  1.8585763e-07  0.0029854434 
       850   8.5            6.7769252e-05  0.00095881345 -336081.61      0.00028491455  4.9770057      27.83345       3417.9639      1.5428516     -1.3729262      18.248678     -1.4692096e-07  1.8646022e-07  0.0029739896 
       860   8.6            7.389646e-05   0.00094320492 -336081.61      0.00031067448  4.9770057      27.83345       3417.9639      1.5427002     -1.3730414      18.248582     -1.4454326e-07  1.8671056e-07  0.0029627826 
       870   8.7            8.0179253e-05  0.0009275193  -336081.61      0.00033708851  4.9770057      27.83345       3417.9639      1.542545      -1.3731605      18.248484     -1.4220346e-07  1.8714495e-07  0.0029519355 
       880   8.8            8.6600435e-05  0.00091176289 -336081.61      0.00036408436  4.9770057      27.83345       3417.9639      1.5423863     -1.3732831      18.248385     -1.4014331e-07  1.8772385e-07  0.0029415604 
       890   8.9            9.3142804e-05  0.00089594177 -336081.61      0.00039158969  4.9770057      27.83345       3417.9639      1.5422245     -1.3734092      18.248284     -1.3807842e-07  1.8790589e-07  0.0029317598 
       900   9              9.9789188e-05  0.00088006258 -336081.61      0.00041953233  4.9770057      27.83345       3417.9639      1.54206       -1.3735384      18.248181     -1.3557142e-07  1.8837523e-07  0.0029226298 
       910   9.1            0.0001065225   0.00086413313 -336081.61      0.00044784042  4.9770057      27.83345       3417.9639      1.541893      -1.3736704      18.248077     -1.3391315e-07  1.8909421e-07  0.0029142563 
       920   9.2            0.00011332577  0.00084816284 -336081.61      0.00047644264  4.9770057      27.83345       3417.9639      1.541724      -1.3738051      18.247971     -1.3132556e-07  1.8939401e-07  0.0029067125 
       930   9.3            0.0001201822   0.00083216322 -336081.61      0.00050526835  4.9770057      27.83345       3417.9639      1.5415532     -1.3739422      18.247865     -1.2895645e-07  1.8966338e-07  0.0029000619 
       940   9.4            0.0001270752   0.0008161481  -336081.61      0.00053424779  4.9770057      27.83345       3417.9639      1.5413809     -1.3740814      18.247758     -1.2675245e-07  1.9038396e-07  0.0028943545 
       950   9.5            0.00013398842  0.00080013384 -336081.61      0.00056331226  4.9770057      27.83345       3417.9639      1.5412076     -1.3742224      18.24765      -1.2522353e-07  1.9097304e-07  0.0028896286 
       960   9.6            0.00014090581  0.00078413944 -336081.61      0.00059239428  4.9770057      27.83345       3417.9639      1.5410335     -1.3743649      18.247541     -1.2294262e-07  1.9187267e-07  0.0028859079 
       970   9.7            0.00014781168  0.00076818663 -336081.61      0.00062142782  4.9770057      27.83345       3417.9639      1.5408588     -1.3745087      18.247432     -1.2124346e-07  1.9202574e-07  0.0028832086 
       980   9.8            0.00015469068  0.00075229992 -336081.61      0.00065034843  4.9770057      27.83345       3417.9639      1.540684      -1.3746534      18.247322     -1.1905348e-07  1.9292825e-07  0.0028815325 
       990   9.9            0.00016152792  0.00073650652 -336081.61      0.00067909345  4.9770057      27.83345       3417.9639      1.5405093     -1.3747989      18.247212     -1.1670576e-07  1.9314951e-07  0.0028808756 
      1000   10             0.00016830896  0.00072083638 -336081.61      0.00070760221  4.9770057      27.83345       3417.9639      1.540335      -1.3749448      18.247102     -1.1484841e-07  1.939549e-07   0.002881224  
      1010   10.1           0.00017501988  0.00070532208 -336081.61      0.00073581618  4.9770057      27.83345       3417.9639      1.5401613     -1.3750908      18.246992     -1.1311877e-07  1.9442453e-07  0.0028825602 
      1020   10.2           0.00018164733  0.0006899988  -336081.61      0.00076367919  4.9770057      27.83345       3417.9639      1.5399885     -1.3752368      18.246882     -1.1134366e-07  1.9490458e-07  0.0028848587 
      1030   10.3           0.00018817853  0.0006749042  -336081.61      0.00079113759  4.9770057      27.83345       3417.9639      1.5398168     -1.3753823      18.246772     -1.0957666e-07  1.9569388e-07  0.0028880912 
      1040   10.4           0.00019460138  0.00066007833 -336081.61      0.00081814045  4.9770057      27.83345       3417.9639      1.5396466     -1.3755273      18.246663     -1.0775868e-07  1.9631662e-07  0.0028922288 
      1050   10.5           0.00020090446  0.00064556347 -336081.61      0.00084463975  4.9770057      27.83345       3417.9639      1.5394779     -1.3756714      18.246554     -1.0605765e-07  1.9691853e-07  0.002897239  
      1060   10.6           0.00020707707  0.00063140394 -336081.61      0.00087059056  4.9770057      27.83345       3417.9639      1.5393109     -1.3758145      18.246445     -1.0449857e-07  1.9750197e-07  0.0029030866 
      1070   10.7           0.00021310932  0.00061764597 -336081.61      0.00089595125  4.9770057      27.83345       3417.9639      1.539146      -1.3759563      18.246338     -1.0303682e-07  1.9801364e-07  0.0029097381 
      1080   10.8           0.00021899214  0.0006043375  -336081.61      0.00092068372  4.9770057      27.83345       3417.9639      1.5389832     -1.3760966      18.24623      -1.0152829e-07  1.9853599e-07  0.0029171555 
      1090   10.9           0.00022471734  0.00059152778 -336081.61      0.00094475356  4.9770057      27.83345       3417.9639      1.5388227     -1.3762352      18.246124     -1.0007293e-07  1.9911997e-07  0.002925302  
      1100   11             0.00023027769  0.00057926709 -336081.61      0.0009681303   4.9770057      27.83345       3417.9639      1.5386646     -1.376372       18.246019     -9.8922296e-08  1.9979493e-07  0.0029341419 
      1110   11.1           0.00023566693  0.00056760632 -336081.61      0.00099078764  4.9770057      27.83345       3417.9639      1.538509      -1.3765069      18.245915     -9.759907e-08   2.0031949e-07  0.0029436302 
      1120   11.2           0.00024087983  0.00055659644 -336081.61      0.0010127037   4.9770057      27.83345       3417.9639      1.5383562     -1.3766395      18.245812     -9.5956593e-08  2.0083873e-07  0.0029537292 
      1130   11.3           0.0002459123   0.00054628794 -336081.61      0.0010338611   4.9770057      27.83345       3417.9639      1.5382061     -1.3767699      18.24571      -9.4380109e-08  2.0153268e-07  0.0029643991 
      1140   11.4           0.00025076134  0.00053673012 -336081.61      0.0010542474   4.9770057      27.83345       3417.9639      1.5380589     -1.3768979      18.24561      -9.3229822e-08  2.0224032e-07  0.0029755927 
      1150   11.5           0.00025542519  0.00052797024 -336081.61      0.0010738551   4.9770057      27.83345       3417.9639      1.5379146     -1.3770234      18.245511     -9.24607e-08    2.0251183e-07  0.0029872646 
      1160   11.6           0.00025990326  0.0005200529  -336081.61      0.0010926817   4.9770057      27.83345       3417.9639      1.5377733     -1.3771463      18.245414     -9.1726943e-08  2.0250958e-07  0.0029993703 
      1170   11.7           0.00026419622  0.0005130188  -336081.61      0.0011107301   4.9770057      27.83345       3417.9639      1.537635      -1.3772665      18.245319     -9.0298242e-08  2.0302958e-07  0.0030118586 
      1180   11.8           0.00026830598  0.00050690398 -336081.61      0.0011280083   4.9770057      27.83345       3417.9639      1.5374998     -1.3773839      18.245226     -8.8989254e-08  2.037428e-07   0.0030246881 
      1190   11.9           0.00027223564  0.00050173892 -336081.61      0.0011445293   4.9770057      27.83345       3417.9639      1.5373677     -1.3774985      18.245135     -8.8424022e-08  2.0426003e-07  0.0030378039 
      1200   12             0.00027598948  0.00049754734 -336081.61      0.0011603112   4.9770057      27.83345       3417.9639      1.5372386     -1.3776102      18.245046     -8.7319488e-08  2.0441676e-07  0.0030511668 
      1210   12.1           0.00027957286  0.00049434584 -336081.61      0.0011753764   4.9770057      27.83345       3417.9639      1.5371127     -1.377719       18.24496      -8.6523313e-08  2.0464675e-07  0.0030647291 
      1220   12.2           0.00028299212  0.00049214274 -336081.61      0.0011897516   4.9770057      27.83345       3417.9639      1.5369898     -1.3778248      18.244876     -8.5843743e-08  2.0530581e-07  0.0030784458 
      1230   12.3           0.00028625446  0.00049093808 -336081.61      0.0012034671   4.9770057      27.83345       3417.9639      1.53687       -1.3779276      18.244795     -8.4665808e-08  2.0591656e-07  0.0030922885 
      1240   12.4           0.00028936777  0.00049072314 -336081.61      0.001216556    4.9770057      27.83345       3417.9639      1.5367533     -1.3780274      18.244718     -8.407077e-08   2.0557395e-07  0.0031062132 
      1250   12.5           0.00029234044  0.00049148062 -336081.61      0.0012290536   4.9770057      27.83345       3417.9639      1.5366395     -1.3781242      18.244643     -8.3668188e-08  2.0550715e-07  0.0031201987 
      1260   12.6           0.00029518124  0.00049318499 -336081.61      0.0012409969   4.9770057      27.83345       3417.9639      1.5365287     -1.378218       18.244572     -8.2104945e-08  2.0615637e-07  0.0031342174 
      1270   12.7           0.0002978991   0.00049580303 -336081.61      0.0012524233   4.9770057      27.83345       3417.9639      1.5364209     -1.3783088      18.244505     -8.2194537e-08  2.0535681e-07  0.0031482554 
      1280   12.8           0.00030050293  0.0004992948  -336081.61      0.0012633703   4.9770057      27.83345       3417.9639      1.5363159     -1.3783967      18.244442     -8.1046166e-08  2.0554271e-07  0.0031622975 
      1290   12.9           0.00030300149  0.00050361447 -336081.61      0.0012738747   4.9770057      27.83345       3417.9639      1.5362137     -1.3784815      18.244382     -8.0279499e-08  2.067067e-07   0.003176344  
      1300   13             0.00030540326  0.00050871171 -336081.61      0.0012839722   4.9770057      27.83345       3417.9639      1.5361142     -1.3785635      18.244327     -8.0310695e-08  2.059947e-07   0.0031903844 
      1310   13.1           0.00030771631  0.00051453254 -336081.61      0.0012936967   4.9770057      27.83345       3417.9639      1.5360175     -1.3786426      18.244276     -7.8832509e-08  2.0678461e-07  0.0032044336 
      1320   13.2           0.00030994823  0.00052102076 -336081.61      0.0013030801   4.9770057      27.83345       3417.9639      1.5359233     -1.3787188      18.244229     -7.9206344e-08  2.0589761e-07  0.0032184913 
      1330   13.3           0.0003121061   0.00052811879 -336081.61      0.0013121522   4.9770057      27.83345       3417.9639      1.5358316     -1.3787923      18.244187     -7.774611e-08   2.0555625e-07  0.0032325732 
      1340   13.4           0.00031419645  0.00053576882 -336081.61      0.0013209404   4.9770057      27.83345       3417.9639      1.5357423     -1.3788631      18.244149     -7.7651099e-08  2.0579266e-07  0.0032466934 
      1350   13.5           0.00031622525  0.00054391348 -336081.61      0.0013294698   4.9770057      27.83345       3417.9639      1.5356554     -1.3789312      18.244116     -7.6877291e-08  2.0578903e-07  0.0032608674 
      1360   13.6           0.00031819795  0.00055249655 -336081.61      0.0013377635   4.9770057      27.83345       3417.9639      1.5355707     -1.3789968      18.244087     -7.6432005e-08  2.0642948e-07  0.0032751123 
      1370   13.7           0.00032011954  0.00056146351 -336081.61      0.0013458421   4.9770057      27.83345       3417.9639      1.5354882     -1.3790599      18.244063     -7.589049e-08   2.0464631e-07  0.0032894499 
      1380   13.8           0.0003219945   0.00057076188 -336081.61      0.0013537248   4.9770057      27.83345       3417.9639      1.5354076     -1.3791206      18.244044     -7.5512002e-08  2.0570253e-07  0.0033038973 
      1390   13.9           0.00032382697  0.00058034149 -336081.61      0.0013614289   4.9770057      27.83345       3417.9639      1.5353291     -1.379179       18.244029     -7.4709398e-08  2.0415121e-07  0.0033184705 
      1400   14             0.00032562072  0.00059015457 -336081.61      0.0013689701   4.9770057      27.83345       3417.9639      1.5352523     -1.3792352      18.244019     -7.4425497e-08  2.0532072e-07  0.0033331955 
      1410   14.1           0.00032737924  0.00060015604 -336081.61      0.0013763633   4.9770057      27.83345       3417.9639      1.5351772     -1.3792893      18.244013     -7.3649284e-08  2.0435611e-07  0.0033480776 
      1420   14.2           0.00032910577  0.00061030317 -336081.61      0.001383622    4.9770057      27.83345       3417.9639      1.5351038     -1.3793414      18.244011     -7.3565087e-08  2.0394472e-07  0.0033631491 
      1430   14.3           0.0003308034   0.00062055586 -336081.61      0.0013907591   4.9770057      27.83345       3417.9639      1.5350318     -1.3793915      18.244014     -7.2599133e-08  2.0344047e-07  0.0033784065 
      1440   14.4           0.00033247503  0.00063087636 -336081.61      0.0013977869   4.9770057      27.83345       3417.9639      1.5349611     -1.3794399      18.244021     -7.258782e-08   2.035016e-07   0.0033938795 
      1450   14.5           0.00033412349  0.00064122935 -336081.61      0.0014047174   4.9770057      27.83345       3417.9639      1.5348917     -1.3794865      18.244033     -7.1286801e-08  2.0283097e-07  0.0034095684 
      1460   14.6           0.00033575153  0.00065158152 -336081.61      0.001411562    4.9770057      27.83345       3417.9639      1.5348234     -1.3795315      18.244048     -7.1865088e-08  2.0314723e-07  0.0034254879 
      1470   14.7           0.00033736186  0.00066190191 -336081.61      0.0014183321   4.9770057      27.83345       3417.9639      1.534756      -1.3795751      18.244067     -7.0395136e-08  2.0143724e-07  0.0034416478 
      1480   14.8           0.00033895714  0.0006721613  -336081.61      0.0014250389   4.9770057      27.83345       3417.9639      1.5346896     -1.3796174      18.244091     -7.0733859e-08  2.0212031e-07  0.0034580501 
      1490   14.9           0.00034054007  0.00068233246 -336081.61      0.0014316939   4.9770057      27.83345       3417.9639      1.5346238     -1.3796583      18.244118     -6.9393033e-08  2.0116044e-07  0.0034747052 
      1500   15             0.00034211333  0.00069238984 -336081.61      0.0014383081   4.9770057      27.83345       3417.9639      1.5345586     -1.3796982      18.244148     -6.9309328e-08  2.008075e-07   0.0034916107 
      1510   15.1           0.00034367961  0.00070230956 -336081.61      0.0014448931   4.9770057      27.83345       3417.9639      1.5344938     -1.379737       18.244183     -6.9013403e-08  2.0053677e-07  0.003508776  
      1520   15.2           0.00034524165  0.00071206914 -336081.61      0.0014514602   4.9770057      27.83345       3417.9639      1.5344294     -1.379775       18.244221     -6.7964475e-08  1.9958825e-07  0.0035261926 
      1530   15.3           0.00034680218  0.00072164767 -336081.61      0.0014580209   4.9770057      27.83345       3417.9639      1.5343652     -1.3798121      18.244262     -6.8010147e-08  1.9955489e-07  0.0035438699 
      1540   15.4           0.00034836397  0.00073102549 -336081.61      0.001464587    4.9770057      27.83345       3417.9639      1.5343011     -1.3798486      18.244307     -6.6720009e-08  1.9930046e-07  0.0035617907 
      1550   15.5           0.0003499298   0.00074018409 -336081.61      0.0014711701   4.9770057      27.83345       3417.9639      1.5342369     -1.3798846      18.244355     -6.7006433e-08  1.9786949e-07  0.0035799704 
      1560   15.6           0.00035150247  0.00074910636 -336081.61      0.0014777818   4.9770057      27.83345       3417.9639      1.5341725     -1.3799201      18.244405     -6.5775573e-08  1.9821988e-07  0.003598388  
      1570   15.7           0.00035308475  0.00075777601 -336081.61      0.001484434    4.9770057      27.83345       3417.9639      1.5341078     -1.3799553      18.244459     -6.5572397e-08  1.9674578e-07  0.0036170405 
      1580   15.8           0.00035467945  0.00076617798 -336081.61      0.0014911384   4.9770057      27.83345       3417.9639      1.5340427     -1.3799904      18.244516     -6.4571868e-08  1.9719138e-07  0.0036359322 
      1590   15.9           0.00035628933  0.00077429799 -336081.61      0.0014979067   4.9770057      27.83345       3417.9639      1.533977      -1.3800253      18.244576     -6.4555961e-08  1.9616103e-07  0.0036550349 
      1600   16             0.00035791715  0.00078212285 -336081.61      0.0015047503   4.9770057      27.83345       3417.9639      1.5339107     -1.3800602      18.244638     -6.3497388e-08  1.9554476e-07  0.0036743613 
      1610   16.1           0.0003595656   0.00078963998 -336081.61      0.0015116808   4.9770057      27.83345       3417.9639      1.5338436     -1.3800953      18.244703     -6.3105722e-08  1.9496486e-07  0.0036938787 
      1620   16.2           0.00036123737  0.00079683784 -336081.61      0.0015187092   4.9770057      27.83345       3417.9639      1.5337756     -1.3801305      18.24477      -6.2184203e-08  1.9496696e-07  0.0037135992 
      1630   16.3           0.00036293505  0.00080370543 -336081.61      0.0015258465   4.9770057      27.83345       3417.9639      1.5337066     -1.3801661      18.24484      -6.1894029e-08  1.933955e-07   0.003733492  
      1640   16.4           0.00036466117  0.00081023253 -336081.61      0.0015331034   4.9770057      27.83345       3417.9639      1.5336365     -1.3802021      18.244912     -6.1086882e-08  1.9402401e-07  0.0037535551 
      1650   16.5           0.00036641818  0.00081640961 -336081.61      0.0015404903   4.9770057      27.83345       3417.9639      1.5335653     -1.3802387      18.244986     -6.0297427e-08  1.9172635e-07  0.0037737741 
      1660   16.6           0.00036820845  0.00082222769 -336081.61      0.0015480169   4.9770057      27.83345       3417.9639      1.5334928     -1.3802758      18.245062     -5.9564306e-08  1.9319628e-07  0.0037941341 
      1670   16.7           0.00037003423  0.00082767843 -336081.61      0.0015556928   4.9770057      27.83345       3417.9639      1.5334189     -1.3803137      18.245141     -5.9177171e-08  1.9097976e-07  0.0038146199 
      1680   16.8           0.00037189765  0.00083275397 -336081.61      0.001563527    4.9770057      27.83345       3417.9639      1.5333435     -1.3803523      18.245221     -5.8092648e-08  1.9123368e-07  0.0038352227 
      1690   16.9           0.00037380074  0.0008374471  -336081.61      0.0015715279   4.9770057      27.83345       3417.9639      1.5332666     -1.3803917      18.245303     -5.7688494e-08  1.8996157e-07  0.0038559199 
      1700   17             0.00037574537  0.00084175088 -336081.61      0.0015797035   4.9770057      27.83345       3417.9639      1.5331882     -1.3804321      18.245387     -5.6214127e-08  1.8977181e-07  0.003876706  
      1710   17.1           0.00037773328  0.00084565917 -336081.61      0.0015880611   4.9770057      27.83345       3417.9639      1.5331081     -1.3804735      18.245473     -5.6104517e-08  1.8885437e-07  0.0038975546 
      1720   17.2           0.00037976606  0.0008491659  -336081.61      0.0015966072   4.9770057      27.83345       3417.9639      1.5330262     -1.380516       18.24556      -5.5320738e-08  1.8893351e-07  0.0039184614 
      1730   17.3           0.00038184512  0.00085226576 -336081.61      0.001605348    4.9770057      27.83345       3417.9639      1.5329426     -1.3805595      18.245649     -5.4010951e-08  1.8675572e-07  0.0039394029 
      1740   17.4           0.00038397172  0.0008549536  -336081.61      0.0016142886   4.9770057      27.83345       3417.9639      1.5328572     -1.3806042      18.245739     -5.3654349e-08  1.8818868e-07  0.0039603683 
      1750   17.5           0.00038614694  0.00085722489 -336081.61      0.0016234336   4.9770057      27.83345       3417.9639      1.53277       -1.3806502      18.245831     -5.2219293e-08  1.8548436e-07  0.0039813354 
      1760   17.6           0.00038837168  0.00085907525 -336081.61      0.0016327869   4.9770057      27.83345       3417.9639      1.5326809     -1.3806973      18.245924     -5.2295386e-08  1.8689227e-07  0.0040022999 
      1770   17.7           0.00039064665  0.00086050091 -336081.61      0.0016423512   4.9770057      27.83345       3417.9639      1.5325898     -1.3807458      18.246018     -5.0695493e-08  1.842835e-07   0.004023233  
      1780   17.8           0.00039297236  0.00086149833 -336081.61      0.001652129    4.9770057      27.83345       3417.9639      1.5324969     -1.3807956      18.246113     -4.9611205e-08  1.8486394e-07  0.0040441287 
      1790   17.9           0.00039534913  0.00086206435 -336081.61      0.0016621214   4.9770057      27.83345       3417.9639      1.532402      -1.3808467      18.24621      -4.9653796e-08  1.8385424e-07  0.0040649671 
      1800   18             0.00039777708  0.00086219628 -336081.61      0.0016723289   4.9770057      27.83345       3417.9639      1.5323052     -1.3808992      18.246308     -4.7763648e-08  1.8361437e-07  0.0040857321 
      1810   18.1           0.00040025612  0.00086189161 -336081.61      0.0016827513   4.9770057      27.83345       3417.9639      1.5322065     -1.380953       18.246407     -4.8047428e-08  1.8234344e-07  0.0041064165 
      1820   18.2           0.00040278596  0.00086114843 -336081.61      0.0016933872   4.9770057      27.83345       3417.9639      1.5321059     -1.3810082      18.246507     -4.5445396e-08  1.8231959e-07  0.0041269891 
      1830   18.3           0.00040536609  0.00085996498 -336081.61      0.0017042345   4.9770057      27.83345       3417.9639      1.5320034     -1.3810647      18.246607     -4.6098923e-08  1.8087283e-07  0.004147455  
      1840   18.4           0.00040799579  0.0008583401  -336081.61      0.0017152903   4.9770057      27.83345       3417.9639      1.531899      -1.3811226      18.246709     -4.4250013e-08  1.8166616e-07  0.0041677837 
      1850   18.5           0.00041067413  0.00085627274 -336081.61      0.0017265505   4.9770057      27.83345       3417.9639      1.5317929     -1.3811818      18.246812     -4.3807821e-08  1.7927867e-07  0.0041879693 
      1860   18.6           0.00041339997  0.00085376258 -336081.61      0.0017380104   4.9770057      27.83345       3417.9639      1.5316849     -1.3812423      18.246915     -4.2244985e-08  1.7979577e-07  0.0042079966 
      1870   18.7           0.00041617195  0.00085080936 -336081.61      0.0017496644   4.9770057      27.83345       3417.9639      1.5315752     -1.3813041      18.247019     -4.1547319e-08  1.7838505e-07  0.0042278466 
      1880   18.8           0.00041898851  0.00084741351 -336081.61      0.0017615057   4.9770057      27.83345       3417.9639      1.5314639     -1.3813671      18.247124     -4.0995853e-08  1.7853688e-07  0.0042475181 
      1890   18.9           0.00042184788  0.00084357571 -336081.61      0.001773527    4.9770057      27.83345       3417.9639      1.5313509     -1.3814314      18.247229     -3.9528734e-08  1.7761676e-07  0.0042669815 
      1900   19             0.00042474807  0.00083929713 -336081.61      0.00178572     4.9770057      27.83345       3417.9639      1.5312365     -1.3814967      18.247335     -3.8879207e-08  1.7677829e-07  0.0042862401 
      1910   19.1           0.00042768688  0.00083457942 -336081.61      0.0017980753   4.9770057      27.83345       3417.9639      1.5311206     -1.3815632      18.247442     -3.7217017e-08  1.7624381e-07  0.0043052709 
      1920   19.2           0.00043066195  0.0008294246  -336081.61      0.001810583    4.9770057      27.83345       3417.9639      1.5310033     -1.3816307      18.247549     -3.7450163e-08  1.7599169e-07  0.0043240663 
      1930   19.3           0.00043367067  0.00082383526 -336081.61      0.0018232323   4.9770057      27.83345       3417.9639      1.5308848     -1.3816991      18.247657     -3.5411243e-08  1.7479457e-07  0.0043426169 
      1940   19.4           0.00043671028  0.00081781432 -336081.61      0.0018360114   4.9770057      27.83345       3417.9639      1.5307651     -1.3817684      18.247766     -3.5139508e-08  1.7491211e-07  0.0043609032 
      1950   19.5           0.00043977782  0.00081136543 -336081.61      0.0018489078   4.9770057      27.83345       3417.9639      1.5306444     -1.3818385      18.247874     -3.3507541e-08  1.7375694e-07  0.0043789256 
      1960   19.6           0.00044287013  0.00080449244 -336081.61      0.0018619085   4.9770057      27.83345       3417.9639      1.5305228     -1.3819094      18.247984     -3.2998662e-08  1.7319214e-07  0.0043966635 
      1970   19.7           0.0004459839   0.00079720003 -336081.61      0.0018749993   4.9770057      27.83345       3417.9639      1.5304003     -1.3819809      18.248093     -3.2460371e-08  1.7319604e-07  0.0044141141 
      1980   19.8           0.00044911564  0.00078949308 -336081.61      0.0018881658   4.9770057      27.83345       3417.9639      1.5302772     -1.3820529      18.248203     -3.0408831e-08  1.7144679e-07  0.0044312628 
      1990   19.9           0.00045226171  0.00078137733 -336081.61      0.0019013925   4.9770057      27.83345       3417.9639      1.5301536     -1.3821253      18.248313     -3.0422996e-08  1.7244439e-07  0.0044481023 
      2000   20             0.00045541831  0.0007728588  -336081.61      0.0019146634   4.9770057      27.83345       3417.9639      1.5300295     -1.3821981      18.248424     -2.8994576e-08  1.7027424e-07  0.0044646235 
Loop time of 1268.69 on 2 procs for 2000 steps with 32526 atoms

97.6% CPU use with 1 MPI tasks x 2 OpenMP threads

Minimization stats:
  Stopping criterion = max iterations
  Energy initial, next-to-last, final = 
      -336078.87661624  -336081.607275083  -336081.607276416
  Force two-norm initial, final = 7.8564544 0.0007728588
  Force max component initial, final = 2.2842576 8.7089278e-06
  Final line search alpha, max atom move = 0 0
  Iterations, force evaluations = 2000 2002

MPI task timing breakdown:
Section |  min time  |  avg time  |  max time  |%varavg| %total
---------------------------------------------------------------
Pair    | 1263.6     | 1263.6     | 1263.6     |   0.0 | 99.60
Neigh   | 0          | 0          | 0          |   0.0 |  0.00
Comm    | 3.2967     | 3.2967     | 3.2967     |   0.0 |  0.26
Output  | 0.060439   | 0.060439   | 0.060439   |   0.0 |  0.00
Modify  | 0          | 0          | 0          |   0.0 |  0.00
Other   |            | 1.687      |            |       |  0.13

Nlocal:          32526 ave       32526 max       32526 min
Histogram: 1 0 0 0 0 0 0 0 0 0
Nghost:         150258 ave      150258 max      150258 min
Histogram: 1 0 0 0 0 0 0 0 0 0
Neighs:              0 ave           0 max           0 min
Histogram: 1 0 0 0 0 0 0 0 0 0
FullNghs:  3.69338e+06 ave 3.69338e+06 max 3.69338e+06 min
Histogram: 1 0 0 0 0 0 0 0 0 0

Total # of neighbors = 3693378
Ave neighs/atom = 113.55156
Neighbor list builds = 0
Dangerous builds = 0

#write_data      fire_${name}.data

fix             3 all box/relax z 0.0 vmax 0.001
min_style       cg
minimize        0.0 1.0e-8 1000 2000
Switching to 'neigh_modify every 1 delay 0 check yes' setting during minimization
WARNING: Energy due to 3 extra global DOFs will be included in minimizer energies
 (src/min.cpp:219)
Per MPI rank memory allocation (min/avg/max) = 72.87 | 72.87 | 72.87 Mbytes
   Step          Time           Temp          Fnorm          PotEng         KinEng           Lx             Ly             Lz            Pxx            Pyy            Pzz            Pxy            Pxz            Pyz      
      2000   2              0.00045541831  0.0007728588  -336081.61      0.0019146634   4.9770057      27.83345       3417.9639      1.5300295     -1.3821981      18.248424     -2.9027326e-08  1.7029177e-07  0.0044646237 
      2010   2.01           0.00045541831  0.00098956157 -336081.61      0.0019146634   4.9770057      27.83345       3417.9854     -8.1577527     -10.863704     -0.025091127   -2.9290731e-08  1.7096792e-07  0.0044645381 
      2020   2.02           0.00045541831  0.00080315017 -336081.61      0.0019146634   4.9770057      27.83345       3417.9854     -8.1686657     -10.903629      0.010390309   -2.9134156e-08  1.7118803e-07  0.0044644682 
      2030   2.03           0.00045541831  0.00086581716 -336081.61      0.0019146634   4.9770057      27.83345       3417.9854     -8.1815131     -10.913019      0.001786856   -2.9090379e-08  1.7117804e-07  0.0044644684 
      2040   2.04           0.00045541831  0.00098935371 -336081.61      0.0019146634   4.9770057      27.83345       3417.9854     -8.2024546     -10.928319     -0.012893498   -2.8971867e-08  1.7109068e-07  0.0044644669 
      2050   2.05           0.00045541831  0.0017424679  -336081.61      0.0019146634   4.9770057      27.83345       3417.9855     -8.2323474     -10.888008     -0.012465393   -2.8395743e-08  1.7125099e-07  0.0044645817 
      2060   2.06           0.00045541831  0.00097539631 -336081.61      0.0019146634   4.9770057      27.83345       3417.9853     -8.1169144     -10.832821      0.054056772   -2.9441255e-08  1.7091818e-07  0.0044644999 
      2070   2.07           0.00045541831  0.003071978   -336081.61      0.0019146634   4.9770057      27.83345       3417.9853     -8.1542476     -11.031221      0.011223326   -2.8417241e-08  1.7140602e-07  0.004463907  
      2080   2.08           0.00045541831  0.00076596887 -336081.61      0.0019146634   4.9770057      27.83345       3417.9854     -8.143664      -10.873155      0.011582199   -2.9367398e-08  1.7102848e-07  0.0044644553 
      2090   2.09           0.00045541831  0.0031175841  -336081.61      0.0019146634   4.9770057      27.83345       3417.9853     -8.162933      -10.625227      0.010747704   -3.5327604e-08  1.6812303e-07  0.0044647061 
      2100   2.1            0.00045541831  0.00091767207 -336081.61      0.0019146634   4.9770057      27.83345       3417.9854     -8.1797159     -10.946517     -0.049895195   -2.9050171e-08  1.7123521e-07  0.0044641531 
      2110   2.11           0.00045541831  0.0012102172  -336081.61      0.0019146634   4.9770057      27.83345       3417.9854     -8.1337461     -10.852926      0.022161808   -2.8931498e-08  1.7093119e-07  0.0044644167 
      2120   2.12           0.00045541831  0.0014766077  -336081.61      0.0019146634   4.9770057      27.83345       3417.9854     -8.1322518     -10.842219      0.021549961   -2.8887335e-08  1.7051895e-07  0.0044644671 
      2130   2.13           0.00045541831  0.0018071309  -336081.61      0.0019146634   4.9770057      27.83345       3417.9854     -8.1304429     -10.829816      0.020695467   -2.8821989e-08  1.7020308e-07  0.0044645233 
      2140   2.14           0.00045541831  0.0022486934  -336081.61      0.0019146634   4.9770057      27.83345       3417.9854     -8.1283685     -10.814408      0.018721055   -2.8846251e-08  1.7020864e-07  0.0044645923 
      2150   2.15           0.00045541831  0.0033822801  -336081.61      0.0019146634   4.9770057      27.83345       3417.9854     -8.1243961     -10.778949      0.0095878255  -2.8936581e-08  1.7003697e-07  0.0044647511 
      2160   2.16           0.00045541831  0.0086545732  -336081.61      0.0019146634   4.9770057      27.83345       3417.9855     -8.3093788     -10.756412      0.010427804   -3.6698911e-08  1.8875297e-07  0.0044646138 
      2170   2.17           0.00045541831  0.00093217071 -336081.61      0.0019146634   4.9770057      27.83345       3417.9853     -8.1115218     -10.837713      0.069237646   -2.8927086e-08  1.7173052e-07  0.0044641009 
      2180   2.18           0.00045541831  0.0015240643  -336081.61      0.0019146634   4.9770057      27.83345       3417.9855     -8.1678462     -10.909187     -0.030782745   -2.8971846e-08  1.6805772e-07  0.0044641516 
      2190   2.19           0.00045541831  0.0016109476  -336081.61      0.0019146634   4.9770057      27.83345       3417.9854     -8.1087965     -10.8897        0.052050202   -2.9186252e-08  1.6568601e-07  0.0044639989 
      2200   2.2            0.00045541831  0.0019489152  -336081.61      0.0019146634   4.9770057      27.83345       3417.9857     -8.2646372     -11.1413       -0.26185946    -2.6794346e-08  1.7156542e-07  0.0044637127 
      2210   2.21           0.00045541831  0.0015665768  -336081.61      0.0019146634   4.9770057      27.83345       3417.9854     -8.1383035     -10.853432      0.010377948   -2.8868028e-08  1.7153414e-07  0.0044634079 
      2220   2.22           0.00045541831  0.0022245711  -336081.61      0.0019146634   4.9770057      27.83345       3417.9854     -8.1667705     -10.775336      0.015317637   -3.1102842e-08  1.7148072e-07  0.0044633216 
      2230   2.23           0.00045541831  0.0018322444  -336081.61      0.0019146634   4.9770057      27.83345       3417.9854     -8.1251558     -11.004721      0.011670652   -2.7637103e-08  1.706784e-07   0.0044635825 
      2240   2.24           0.00045541831  0.0011620896  -336081.61      0.0019146634   4.9770057      27.83345       3417.9854     -8.144054      -10.947316      0.0079389305  -2.9168051e-08  1.7060337e-07  0.0044633204 
      2250   2.25           0.00045541831  0.0010722583  -336081.61      0.0019146634   4.9770057      27.83345       3417.9854     -8.1484644     -10.924081      0.011683003   -2.8787485e-08  1.7125855e-07  0.0044632569 
      2260   2.26           0.00045541831  0.0024424828  -336081.61      0.0019146634   4.9770057      27.83345       3417.9854     -8.1174826     -10.918952      0.0092338115  -2.8865184e-08  1.7074682e-07  0.0044629563 
      2270   2.27           0.00045541831  0.0011653964  -336081.61      0.0019146634   4.9770057      27.83345       3417.9854     -8.1414029     -10.869187      0.01083445    -2.8986943e-08  1.7143509e-07  0.0044630233 
      2280   2.28           0.00045541831  0.0015504278  -336081.61      0.0019146634   4.9770057      27.83345       3417.9854     -8.1431595     -10.842109      0.010058437   -2.8772641e-08  1.7107487e-07  0.0044629659 
      2290   2.29           0.00045541831  0.0018818884  -336081.61      0.0019146634   4.9770057      27.83345       3417.9854     -8.1458715     -10.818228      0.0090903306  -2.868779e-08   1.7129857e-07  0.004462917  
      2300   2.3            0.00045541831  0.0021749531  -336081.61      0.0019146634   4.9770057      27.83345       3417.9854     -8.1497204     -10.795563      0.0077112113  -2.8682853e-08  1.716733e-07   0.0044628715 
      2310   2.31           0.00045541831  0.0024277205  -336081.61      0.0019146634   4.9770057      27.83345       3417.9854     -8.1552855     -10.774352      0.0052259783  -2.8414438e-08  1.7165049e-07  0.00446283   
      2320   2.32           0.00045541831  0.002643102   -336081.61      0.0019146634   4.9770057      27.83345       3417.9854     -8.1672566     -10.757776     -0.0055095272  -2.824472e-08   1.7208312e-07  0.0044627939 
      2330   2.33           0.00045541831  0.00097633672 -336081.61      0.0019146634   4.9770057      27.83345       3417.9854     -8.1818673     -10.956954     -0.056776029   -2.8583677e-08  1.7146721e-07  0.0044630878 
      2340   2.34           0.00045541831  0.0010143203  -336081.61      0.0019146634   4.9770057      27.83345       3417.9854     -8.1390817     -10.866579      0.016652989   -2.8669421e-08  1.7154098e-07  0.0044630199 
      2350   2.35           0.00045541831  0.0011172298  -336081.61      0.0019146634   4.9770057      27.83345       3417.9854     -8.1387477     -10.861823      0.016493798   -2.8643074e-08  1.7138795e-07  0.004463014  
      2360   2.36           0.00045541831  0.0012312779  -336081.61      0.0019146634   4.9770057      27.83345       3417.9854     -8.1384012     -10.856827      0.016335959   -2.8727974e-08  1.7164336e-07  0.0044630076 
      2370   2.37           0.00045541831  0.0013580823  -336081.61      0.0019146634   4.9770057      27.83345       3417.9854     -8.1380487     -10.851501      0.016152128   -2.8712372e-08  1.7153582e-07  0.004463001  
      2380   2.38           0.00045541831  0.0015007422  -336081.61      0.0019146634   4.9770057      27.83345       3417.9854     -8.1376978     -10.845713      0.015908977   -2.8697575e-08  1.71558e-07    0.0044629925 
      2390   2.39           0.00045541831  0.0016653373  -336081.61      0.0019146634   4.9770057      27.83345       3417.9854     -8.13736       -10.839237      0.015551242   -2.8667231e-08  1.7157292e-07  0.0044629825 
      2400   2.4            0.00045541831  0.0018652361  -336081.61      0.0019146634   4.9770057      27.83345       3417.9854     -8.1370199     -10.831565      0.015042141   -2.8650691e-08  1.7172206e-07  0.0044629711 
      2410   2.41           0.00045541831  0.0021342887  -336081.61      0.0019146634   4.9770057      27.83345       3417.9854     -8.1366487     -10.821449      0.01427678    -2.8609259e-08  1.7136861e-07  0.0044629516 
      2420   2.42           0.00045541831  0.0026295512  -336081.61      0.0019146634   4.9770057      27.83345       3417.9854     -8.1361658     -10.803191      0.012702601   -2.8794972e-08  1.7154242e-07  0.0044629141 
      2430   2.43           0.00045541831  0.0028578087  -336081.61      0.0019146634   4.9770057      27.83345       3417.9854     -8.1326722     -10.795716      0.010613749   -2.8428769e-08  1.7179696e-07  0.0044633037 
      2440   2.44           0.00045541831  0.0047863458  -336081.61      0.0019146634   4.9770057      27.83345       3417.9855     -8.1409008     -10.737781      0.01387996    -2.897009e-08   1.6950078e-07  0.0044643561 
      2450   2.45           0.00045541831  0.0049348014  -336081.61      0.0019146634   4.9770057      27.83345       3417.9854     -8.2781055     -10.982938      0.00240793    -4.9348055e-08  1.6202673e-07  0.0044620613 
      2460   2.46           0.00045541831  0.005527263   -336081.61      0.0019146634   4.9770057      27.83345       3417.9854     -8.2820149     -11.024219     -0.0039973849  -4.9831424e-08  1.6289114e-07  0.0044616814 
      2470   2.47           0.00045541831  0.0065516794  -336081.61      0.0019146634   4.9770057      27.83345       3417.9855     -8.365647      -11.155647     -0.1726751     -5.0277214e-08  1.6459941e-07  0.0044611358 
      2480   2.48           0.00045541831  0.00078375638 -336081.61      0.0019146634   4.9770057      27.83345       3417.9854     -8.1560596     -10.861625      0.011330321   -2.7416353e-08  1.7170895e-07  0.0044624299 
      2490   2.49           0.00045541831  0.00091302031 -336081.61      0.0019146634   4.9770057      27.83345       3417.9854     -8.117405      -10.93647       0.012125032   -3.2192824e-08  1.7137862e-07  0.004462317  
      2500   2.5            0.00045541831  0.0021238164  -336081.61      0.0019146634   4.9770057      27.83345       3417.9854     -8.1245526     -10.813976      0.036296312   -2.5747588e-08  1.7100104e-07  0.0044631133 
      2510   2.51           0.00045541831  0.00090856181 -336081.61      0.0019146634   4.9770057      27.83345       3417.9849     -7.8965549     -10.720918      0.45311645    -3.8407495e-08  1.7182945e-07  0.004461858  
      2520   2.52           0.00045541831  0.0011320114  -336081.61      0.0019146634   4.9770057      27.83345       3417.9854     -8.1273422     -10.953153      0.018096144   -3.6246934e-08  1.7154062e-07  0.0044615185 
      2530   2.53           0.00045541831  0.0013147636  -336081.61      0.0019146634   4.9770057      27.83345       3417.9854     -8.1319668     -10.958166      0.016460784   -3.4269368e-08  1.7119227e-07  0.0044613444 
      2540   2.54           0.00045541831  0.0016294299  -336081.61      0.0019146634   4.9770057      27.83345       3417.9853     -8.1416957     -10.962098      0.012481847   -2.9844415e-08  1.7029618e-07  0.004461109  
      2550   2.55           0.00045541831  0.00082452593 -336081.61      0.0019146634   4.9770057      27.83345       3417.9854     -8.1325476     -10.873191      0.028379832   -2.6157821e-08  1.711242e-07   0.0044625345 
      2560   2.56           0.00045541831  0.0010346883  -336081.61      0.0019146634   4.9770057      27.83345       3417.9854     -8.1337718     -10.864134      0.024299994   -2.633162e-08   1.7150596e-07  0.0044627456 
      2570   2.57           0.00045541831  0.0012753319  -336081.61      0.0019146634   4.9770057      27.83345       3417.9854     -8.1335727     -10.853987      0.023208128   -2.6667984e-08  1.7180369e-07  0.0044629416 
      2580   2.58           0.00045541831  0.0015571895  -336081.61      0.0019146634   4.9770057      27.83345       3417.9854     -8.1331753     -10.842748      0.022579551   -2.6930979e-08  1.7212373e-07  0.0044631483 
      2590   2.59           0.00045541831  0.0018963165  -336081.61      0.0019146634   4.9770057      27.83345       3417.9854     -8.1329095     -10.829882      0.021746976   -2.7775209e-08  1.7289562e-07  0.0044633776 
      2600   2.6            0.00045541831  0.0023291116  -336081.61      0.0019146634   4.9770057      27.83345       3417.9854     -8.1332009     -10.814324      0.019907235   -2.8873433e-08  1.7369633e-07  0.0044636505 
      2610   2.61           0.00045541831  0.0030847444  -336081.61      0.0019146634   4.9770057      27.83345       3417.9854     -8.1362677     -10.789645      0.012874867   -3.171108e-08   1.7576389e-07  0.0044640904 
      2620   2.62           0.00045541831  0.00092280996 -336081.61      0.0019146634   4.9770057      27.83345       3417.9854     -8.1472021     -10.907716      0.0049927743  -5.571945e-09   1.6681294e-07  0.0044617646 
      2630   2.63           0.00045541831  0.00085041905 -336081.61      0.0019146634   4.9770057      27.83345       3417.9854     -8.1449999     -10.9185        0.010995094   -2.9190259e-08  1.7186599e-07  0.0044614794 
      2640   2.64           0.00045541831  0.013291706   -336081.61      0.0019146634   4.9770057      27.83345       3417.985      -8.2895941     -11.086131      0.16636646     1.8051292e-08  1.6292772e-07  0.0044469781 
      2650   2.65           0.00045541831  0.0090143084  -336081.61      0.0019146634   4.9770057      27.83345       3417.9846     -7.7513873     -10.799198      0.48628109    -1.1384459e-07  1.9337005e-07  0.0044531156 
      2660   2.66           0.00045541831  0.0026618953  -336081.61      0.0019146634   4.9770057      27.83345       3417.9855     -8.1445364     -10.99584       0.011119481    1.8647967e-08  1.6652101e-07  0.0044526562 
      2670   2.67           0.00045541831  0.0018382153  -336081.61      0.0019146634   4.9770057      27.83345       3417.9857     -8.2694823     -11.045445     -0.31778225    -3.1349708e-08  1.7838566e-07  0.0044529125 
      2680   2.68           0.00045541831  0.0012077827  -336081.61      0.0019146634   4.9770057      27.83345       3417.9854     -8.1743385     -10.924909     -0.018243412   -6.0476341e-11  1.7072617e-07  0.0044532831 
      2690   2.69           0.00045541831  0.0011623545  -336081.61      0.0019146634   4.9770057      27.83345       3417.9854     -8.1381174     -10.837492      0.020264638   -3.780288e-08   1.7708733e-07  0.0044521306 
      2700   2.7            0.00045541831  0.0015261105  -336081.61      0.0019146634   4.9770057      27.83345       3417.9854     -8.1386738     -10.848317      0.011455558   -5.9080789e-08  1.7955075e-07  0.0044516467 
      2710   2.71           0.00045541831  0.00082645083 -336081.61      0.0019146634   4.9770057      27.83345       3417.9854     -8.1499194     -10.863677      0.017325711   -1.6406152e-08  1.7257413e-07  0.0044523418 
      2720   2.72           0.00045541831  0.00091406019 -336081.61      0.0019146634   4.9770057      27.83345       3417.9854     -8.1512985     -10.863259      0.012456336   -2.3211938e-08  1.735242e-07   0.0044522188 
      2730   2.73           0.00045541831  0.0010440179  -336081.61      0.0019146634   4.9770057      27.83345       3417.9854     -8.1497627     -10.860343      0.012148138   -3.3601564e-08  1.7535659e-07  0.0044520448 
      2740   2.74           0.00045541831  0.0015697266  -336081.61      0.0019146634   4.9770057      27.83345       3417.9854     -8.141508      -10.862436      0.010658843   -9.4526723e-08  1.8436605e-07  0.004451243  
      2750   2.75           0.00045541831  0.00080007765 -336081.61      0.0019146634   4.9770057      27.83345       3417.9854     -8.1444123     -10.872858      0.021489466   -2.0197387e-08  1.731206e-07   0.0044522359 
      2760   2.76           0.00045541831  0.0042537821  -336081.61      0.0019146634   4.9770057      27.83345       3417.9871     -8.8655419     -11.509228     -1.4129242     -4.506735e-07   2.3179583e-07  0.0044469881 
      2770   2.77           0.00045541831  0.00072060292 -336081.61      0.0019146634   4.9770057      27.83345       3417.9854     -8.1526575     -10.910119      0.013201707    7.0596329e-09  1.6848248e-07  0.0044525889 
      2780   2.78           0.00045541831  0.003638464   -336081.61      0.0019146634   4.9770057      27.83345       3417.9854     -8.1416475     -11.017457      0.01089307    -1.6247335e-06  3.8133104e-07  0.0044418029 
      2790   2.79           0.00045541831  0.00092706925 -336081.61      0.0019146634   4.9770057      27.83345       3417.9854     -8.1485542     -10.901158     -0.0035033129  -5.0241532e-07  2.4361306e-07  0.0044483837 
      2800   2.8            0.00045541831  0.0015267421  -336081.61      0.0019146634   4.9770057      27.83345       3417.9855     -8.184021      -10.897667     -0.051323521    5.2458252e-07  1.0824902e-07  0.0044555329 
      2810   2.81           0.00045541831  0.00073438053 -336081.61      0.0019146634   4.9770057      27.83345       3417.9854     -8.1583413     -10.89515       0.011924123    3.982153e-07   1.1038285e-07  0.0044552502 
      2820   2.82           0.00045541831  0.0024586657  -336081.61      0.0019146634   4.9770057      27.83345       3417.9854     -8.1659166     -11.018686     -0.024196089   -5.976478e-08   2.0994618e-07  0.0044522399 
      2830   2.83           0.00045541831  0.00063275969 -336081.61      0.0019146634   4.9770057      27.83345       3417.9854     -8.1642417     -10.893862     -0.0030763241   2.2178702e-08  1.6418509e-07  0.0044518546 
      2840   2.84           0.00045541831  0.00087632899 -336081.61      0.0019146634   4.9770057      27.83345       3417.9855     -8.2383196     -10.993075     -0.13964308     3.0532414e-07  6.8593703e-08  0.0044569079 
      2850   2.85           0.00045541831  0.0017569284  -336081.61      0.0019146634   4.9770057      27.83345       3417.9854     -8.1358732     -10.844519      0.011864785   -4.7312687e-07  3.6246967e-07  0.0044409537 
      2860   2.86           0.00045541831  0.000705171   -336081.61      0.0019146634   4.9770057      27.83345       3417.9854     -8.1507072     -10.909952      0.010622678    2.9685702e-07  6.2379271e-08  0.0044566847 
      2870   2.87           0.00045541831  0.00068737699 -336081.61      0.0019146634   4.9770057      27.83345       3417.9854     -8.1742214     -10.908921      0.011370631    1.4705826e-06 -4.8915118e-07  0.0044819564 
      2880   2.88           0.00045541831  0.0012019222  -336081.61      0.0019146634   4.9770057      27.83345       3417.9853     -8.1210775     -10.895981     -0.0097325357  -1.6806095e-06  1.6400645e-06  0.0043916988 
      2890   2.89           0.00045541831  0.010193494   -336081.61      0.0019146634   4.9770057      27.83345       3417.9869     -8.7177538     -11.547606     -1.2132207     -4.4017995e-05 -8.5107673e-06  0.0043976102 
      2900   2.9            0.00045541831  0.0023898524  -336081.61      0.0019146634   4.9770057      27.83345       3417.9854     -8.1469786     -11.063548      0.0094511973  -1.0314339e-05 -8.3621945e-07  0.0044668797 
      2910   2.91           0.00045541831  0.0027968238  -336081.61      0.0019146634   4.9770057      27.83345       3417.9854     -8.157554      -11.057143      0.0070588783  -3.9846283e-06  4.4623582e-07  0.0044762951 
      2920   2.92           0.00045541831  0.0010297706  -336081.61      0.0019146634   4.9770057      27.83345       3417.9854     -8.1577138     -10.949621      0.010949261    1.9084505e-07  4.6666193e-07  0.0044711406 
      2930   2.93           0.00045541831  0.00086437863 -336081.61      0.0019146634   4.9770057      27.83345       3417.9855     -8.2088878     -10.994764     -0.082389697    9.5058597e-07  5.4996668e-07  0.0044672218 
      2940   2.94           0.00045541831  0.0013384364  -336081.61      0.0019146634   4.9770057      27.83345       3417.9854     -8.1413204     -10.852518      0.012210623   -4.1348441e-06 -1.1851329e-06  0.004434447  
      2950   2.95           0.00045541831  0.0015897816  -336081.61      0.0019146634   4.9770057      27.83345       3417.9853     -8.1291639     -10.795793      0.011282443   -2.4032686e-06 -6.0665028e-07  0.004409204  
      2960   2.96           0.00045541831  0.00087746673 -336081.61      0.0019146634   4.9770057      27.83345       3417.9853     -8.129755      -10.887036      0.063741374    6.2617913e-06  2.071093e-06   0.0044596574 
      2970   2.97           0.00045541831  0.0012531476  -336081.61      0.0019146634   4.9770057      27.83345       3417.9853     -8.1505261     -10.916257      0.012638074   -9.5012378e-06 -3.009171e-06   0.0044370328 
      2980   2.98           0.00045541831  0.001776358   -336081.61      0.0019146634   4.9770057      27.83345       3417.9853     -8.1433515     -10.887736      0.012168928   -1.7855895e-05 -5.4908328e-06  0.0044216964 
      2990   2.99           0.00045541831  0.001657789   -336081.61      0.0019146634   4.9770057      27.83345       3417.9853     -8.1527034     -10.914683     -0.0010161743   1.8180062e-06  1.1622784e-06  0.004448854  
      3000   3              0.00045541831  0.0020404709  -336081.61      0.0019146634   4.9770057      27.83345       3417.9855     -8.2277035     -11.019795     -0.13248638    -1.0447079e-05 -2.391869e-06   0.0044266485 
Loop time of 1357.01 on 2 procs for 1000 steps with 32526 atoms

97.8% CPU use with 1 MPI tasks x 2 OpenMP threads

Minimization stats:
  Stopping criterion = max iterations
  Energy initial, next-to-last, final = 
     -336081.607276416  -336081.607405072  -336081.607405107
  Force two-norm initial, final = 5.3894745 0.042568805
  Force max component initial, final = 5.3894745 0.042519873
  Final line search alpha, max atom move = 1 0.042519873
  Iterations, force evaluations = 1000 1998

MPI task timing breakdown:
Section |  min time  |  avg time  |  max time  |%varavg| %total
---------------------------------------------------------------
Pair    | 1259.4     | 1259.4     | 1259.4     |   0.0 | 92.80
Neigh   | 85.723     | 85.723     | 85.723     |   0.0 |  6.32
Comm    | 5.872      | 5.872      | 5.872      |   0.0 |  0.43
Output  | 0.019698   | 0.019698   | 0.019698   |   0.0 |  0.00
Modify  | 0          | 0          | 0          |   0.0 |  0.00
Other   |            | 6.04       |            |       |  0.45

Nlocal:          32526 ave       32526 max       32526 min
Histogram: 1 0 0 0 0 0 0 0 0 0
Nghost:         150280 ave      150280 max      150280 min
Histogram: 1 0 0 0 0 0 0 0 0 0
Neighs:              0 ave           0 max           0 min
Histogram: 1 0 0 0 0 0 0 0 0 0
FullNghs:  3.69346e+06 ave 3.69346e+06 max 3.69346e+06 min
Histogram: 1 0 0 0 0 0 0 0 0 0

Total # of neighbors = 3693456
Ave neighs/atom = 113.55396
Neighbor list builds = 1152
Dangerous builds = 751
unfix           3
min_style       fire
minimize        0.0 1.0e-8 2000 4000
Switching to 'neigh_modify every 1 delay 0 check yes' setting during minimization
  Parameters for fire:
    dmax  delaystep dtgrow dtshrink alpha0 alphashrink tmax tmin   integrator   halfstepback   abcfire  
     0.1     20      1.1     0.5     0.25     0.99      10  0.02 eulerimplicit      yes          no     
Per MPI rank memory allocation (min/avg/max) = 59.37 | 59.37 | 59.37 Mbytes
   Step          Time           Temp          Fnorm          PotEng         KinEng           Lx             Ly             Lz            Pxx            Pyy            Pzz            Pxy            Pxz            Pyz      
      3000   3              0              0.0020404709  -336081.61      0              4.9770057      27.83345       3417.9855     -8.2277035     -11.021359     -0.14387974    -1.0505215e-05 -2.5371395e-06  0.00097433595
      3010   3.01           2.4110841e-09  0.0018996999  -336081.61      1.0136647e-08  4.9770057      27.83345       3417.9855     -8.226446      -11.016062     -0.14132637    -1.0037124e-05 -2.4985996e-06  0.00097459782
      3020   3.02           8.4938737e-09  0.0015307848  -336081.61      3.5709827e-08  4.9770057      27.83345       3417.9855     -8.2228121     -11.001146     -0.13422099    -8.6839335e-06 -2.2236102e-06  0.00097624703
      3030   7.1445815      1.8181872e-08  0.00076082236 -336081.61      7.6439977e-08  4.9770057      27.83345       3417.9855     -8.2140261     -10.965844     -0.11628989    -4.7494652e-06 -1.2796246e-06  0.0009824455 
      3040   18.592363      2.8634253e-08  0.00056738553 -336081.61      1.2038373e-07  4.9770057      27.83345       3417.9855     -8.2087909     -10.960413     -0.10409034     1.6041631e-06  4.5621106e-07  0.001000221  
      3050   30.5           9.9526533e-08  0.0005552672  -336081.61      4.1842808e-07  4.9770057      27.83345       3417.9855     -8.2082955     -10.957573     -0.10456936     2.863278e-07   1.1540453e-07  0.00099688652
      3060   30.6           2.3717572e-07  0.00055220498 -336081.61      9.9713088e-07  4.9770057      27.83345       3417.9855     -8.20731       -10.956507     -0.10578581    -5.413726e-08   2.252822e-08   0.00099583995
      3070   30.7           4.4396658e-07  0.00054982185 -336081.61      1.8665182e-06  4.9770057      27.83345       3417.9855     -8.2072644     -10.955929     -0.10583437    -1.2214363e-07  3.1250922e-08  0.00099566202
      3080   30.8           7.2363232e-07  0.00054783878 -336081.61      3.042285e-06   4.9770057      27.83345       3417.9855     -8.2072774     -10.95555      -0.10575398    -5.0882629e-08  4.0543807e-08  0.00099521167
      3090   30.9           1.0789467e-06  0.00054574682 -336081.61      4.536093e-06   4.9770057      27.83345       3417.9855     -8.2073051     -10.955513     -0.10568338    -6.5544211e-08  3.119519e-08   0.00099464839
      3100   31             1.5118033e-06  0.00054339756 -336081.61      6.3559027e-06  4.9770057      27.83345       3417.9855     -8.207325      -10.955577     -0.10571922    -8.5573777e-08  2.8097354e-08  0.00099398191
      3110   31.1           2.023483e-06   0.00054075154 -336081.61      8.5070992e-06  4.9770057      27.83345       3417.9855     -8.2073316     -10.955559     -0.10565504    -8.0254772e-08  2.7782135e-08  0.00099323387
      3120   31.2           2.6146213e-06  0.00053777006 -336081.61      1.0992355e-05  4.9770057      27.83345       3417.9855     -8.2073676     -10.955538     -0.10559098    -7.7654279e-08  2.8538186e-08  0.00099236097
      3130   31.3           3.285169e-06   0.00053444132 -336081.61      1.3811462e-05  4.9770057      27.83345       3417.9855     -8.2073946     -10.955565     -0.10552188    -7.8978646e-08  2.9509621e-08  0.00099138764
      3140   31.4           4.0345279e-06  0.00053075874 -336081.61      1.6961906e-05  4.9770057      27.83345       3417.9855     -8.2074253     -10.955553     -0.10543756    -8.1632337e-08  2.9490322e-08  0.00099029493
      3150   31.5           4.8615478e-06  0.0005267213  -336081.61      2.0438852e-05  4.9770057      27.83345       3417.9855     -8.2074581     -10.955545     -0.10533918    -8.2430784e-08  2.9887582e-08  0.00098910909
      3160   31.6           5.7646221e-06  0.00052232839 -336081.61      2.4235545e-05  4.9770057      27.83345       3417.9855     -8.2074988     -10.955547     -0.10522808    -8.1512503e-08  2.9760008e-08  0.00098783066
      3170   31.7           6.7416693e-06  0.00051757967 -336081.61      2.8343233e-05  4.9770057      27.83345       3417.9855     -8.2075425     -10.95554      -0.10509789    -8.126484e-08   2.9891066e-08  0.00098645885
      3180   31.8           7.7901756e-06  0.0005124772  -336081.61      3.2751349e-05  4.9770057      27.83345       3417.9855     -8.2075882     -10.955532     -0.10495248    -8.0654064e-08  2.9908299e-08  0.00098500201
      3190   31.9           8.9072299e-06  0.00050702412 -336081.61      3.7447653e-05  4.9770057      27.83345       3417.9855     -8.2076389     -10.955525     -0.10479486    -8.1092379e-08  2.9911773e-08  0.00098346291
      3200   32             1.0089568e-05  0.00050122549 -336081.61      4.2418423e-05  4.9770057      27.83345       3417.9855     -8.2076917     -10.955513     -0.10462041    -8.1189354e-08  2.9870445e-08  0.00098185108
      3210   32.1           1.1333611e-05  0.0004950865  -336081.61      4.764861e-05   4.9770057      27.83345       3417.9855     -8.2077491     -10.955503     -0.10443168    -8.0455225e-08  2.969892e-08   0.00098017417
      3220   32.2           1.2635484e-05  0.00048861324 -336081.61      5.3121926e-05  4.9770057      27.83345       3417.9855     -8.2078092     -10.955487     -0.10422825    -8.0356815e-08  2.9742949e-08  0.00097843751
      3230   32.3           1.3991057e-05  0.00048181246 -336081.61      5.8821007e-05  4.9770057      27.83345       3417.9855     -8.2078725     -10.955473     -0.10401222    -8.0338558e-08  2.9707001e-08  0.00097665061
      3240   32.4           1.5395973e-05  0.00047469157 -336081.61      6.4727536e-05  4.9770057      27.83345       3417.9855     -8.2079386     -10.955455     -0.10378187    -7.9942272e-08  2.9887697e-08  0.00097482314
      3250   32.5           1.6845679e-05  0.00046725896 -336081.61      7.0822372e-05  4.9770057      27.83345       3417.9855     -8.2080072     -10.955437     -0.10353994    -7.9577525e-08  2.9920799e-08  0.00097296266
      3260   32.6           1.8335462e-05  0.00045952367 -336081.61      7.7085697e-05  4.9770057      27.83345       3417.9855     -8.2080787     -10.955417     -0.10328648    -7.9412134e-08  2.9911749e-08  0.00097107847
      3270   32.7           1.9860475e-05  0.00045149513 -336081.61      8.3497134e-05  4.9770057      27.83345       3417.9855     -8.2081524     -10.955396     -0.10302161    -7.8951075e-08  2.9949853e-08  0.00096918226
      3280   32.8           2.1415767e-05  0.00044318355 -336081.61      9.0035873e-05  4.9770057      27.83345       3417.9855     -8.2082279     -10.955373     -0.10274657    -7.8476881e-08  2.9802447e-08  0.00096728125
[...]
     24280   242.8          1.6269577e-06  5.1503108e-06 -336081.61      6.8400329e-06  4.9770057      27.83345       3417.9855     -8.2076771     -10.926887      0.0096109407   1.0097295e-09 -3.4208921e-10  3.7262524e-08
     24290   242.9          1.6305021e-06  5.0811635e-06 -336081.61      6.8549345e-06  4.9770057      27.83345       3417.9855     -8.2076835     -10.926877      0.0096615586   1.2590295e-09  8.5102897e-10  3.3321141e-08
     24300   243            1.6340019e-06  5.0118726e-06 -336081.61      6.8696485e-06  4.9770057      27.83345       3417.9855     -8.2076899     -10.926868      0.0097122909   1.0016981e-09 -1.2529042e-09  4.1565398e-08
     24310   243.1          1.6374569e-06  4.9425186e-06 -336081.61      6.8841739e-06  4.9770057      27.83345       3417.9855     -8.2076962     -10.926858      0.0097630511   7.6132268e-10  3.5971686e-10  3.5806957e-08
     24320   243.2          1.6408669e-06  4.8731527e-06 -336081.61      6.89851e-06    4.9770057      27.83345       3417.9855     -8.2077026     -10.926849      0.009813869    1.2325515e-09  5.2135532e-10  4.1131828e-08
     24330   243.3          1.6442316e-06  4.8036445e-06 -336081.61      6.9126558e-06  4.9770057      27.83345       3417.9855     -8.207709      -10.926839      0.0098648243   1.352924e-09  -1.4872693e-10  4.0856417e-08
     24340   243.4          1.6475509e-06  4.7341017e-06 -336081.61      6.9266107e-06  4.9770057      27.83345       3417.9855     -8.2077154     -10.92683       0.0099158343   7.1396533e-10 -6.1160162e-10  4.2892912e-08
     24350   243.5          1.6508245e-06  4.6645227e-06 -336081.61      6.9403736e-06  4.9770057      27.83345       3417.9855     -8.2077219     -10.92682       0.0099668794   1.1610554e-09  2.3089368e-10  4.0923004e-08
     24360   243.6          1.6540523e-06  4.594831e-06  -336081.61      6.9539438e-06  4.9770057      27.83345       3417.9855     -8.2077283     -10.926811      0.010018018    1.1204705e-09  1.7621755e-11  4.6239446e-08
     24370   243.7          1.6572341e-06  4.5250847e-06 -336081.61      6.9673206e-06  4.9770057      27.83345       3417.9855     -8.2077347     -10.926801      0.010069276    1.1948626e-09  7.8643053e-10  4.3562057e-08
     24380   243.8          1.6603696e-06  4.4553281e-06 -336081.61      6.980503e-06   4.9770057      27.83345       3417.9855     -8.2077412     -10.926791      0.010120556    1.0358776e-09 -1.3318348e-09  4.6659783e-08
     24390   243.9          1.6634588e-06  4.38544e-06   -336081.61      6.9934904e-06  4.9770057      27.83345       3417.9855     -8.2077476     -10.926782      0.010171893    8.3365278e-10  6.552875e-10   4.3799657e-08
     24400   244            1.6665013e-06  4.3155246e-06 -336081.61      7.006282e-06   4.9770057      27.83345       3417.9855     -8.2077541     -10.926772      0.010223342    1.4260278e-09  1.3687075e-10  4.8007537e-08
     24410   244.1          1.6694971e-06  4.2455833e-06 -336081.61      7.0188769e-06  4.9770057      27.83345       3417.9855     -8.2077606     -10.926763      0.010274869    1.0168551e-09  2.3692548e-10  5.1468128e-08
     24420   244.2          1.672446e-06   4.1755189e-06 -336081.61      7.0312745e-06  4.9770057      27.83345       3417.9855     -8.207767      -10.926753      0.010326421    9.2332136e-10 -1.7003415e-10  4.3041218e-08
     24430   244.3          1.6753478e-06  4.1054213e-06 -336081.61      7.043474e-06   4.9770057      27.83345       3417.9855     -8.2077735     -10.926743      0.010378048    1.2908994e-09 -5.8663139e-10  5.5374884e-08
     24440   244.4          1.6782022e-06  4.035324e-06  -336081.61      7.0554746e-06  4.9770057      27.83345       3417.9855     -8.20778       -10.926734      0.010429798    9.4717705e-10  6.4783791e-10  4.8298777e-08
     24450   244.5          1.6810092e-06  3.9650797e-06 -336081.61      7.0672758e-06  4.9770057      27.83345       3417.9855     -8.2077865     -10.926724      0.010481574    1.320048e-09   1.7732268e-10  5.5188894e-08
     24460   244.6          1.6837686e-06  3.8948075e-06 -336081.61      7.0788767e-06  4.9770057      27.83345       3417.9855     -8.207793      -10.926714      0.010533394    1.0353054e-09 -6.7742198e-10  5.089935e-08 
     24470   244.7          1.6864802e-06  3.824556e-06  -336081.61      7.0902767e-06  4.9770057      27.83345       3417.9855     -8.2077995     -10.926704      0.010585317    9.4468765e-10  2.6756754e-10  5.3632735e-08
     24480   244.8          1.6891438e-06  3.7541562e-06 -336081.61      7.1014752e-06  4.9770057      27.83345       3417.9855     -8.207806      -10.926695      0.010637324    1.4358842e-09 -1.9065552e-10  5.9779832e-08
     24490   244.9          1.6917593e-06  3.683723e-06  -336081.61      7.1124713e-06  4.9770057      27.83345       3417.9855     -8.2078125     -10.926685      0.010689348    8.5239531e-10  2.0271847e-10  5.1181558e-08
     24500   245            1.6943266e-06  3.6133211e-06 -336081.61      7.1232646e-06  4.9770057      27.83345       3417.9855     -8.2078191     -10.926675      0.01074144     1.4883948e-09  8.5334474e-11  5.7690366e-08
     24510   245.1          1.6968455e-06  3.5427989e-06 -336081.61      7.1338543e-06  4.9770057      27.83345       3417.9855     -8.2078256     -10.926666      0.010793643    7.6994316e-10 -7.242725e-10   5.7366698e-08
     24520   245.2          1.6993157e-06  3.4722084e-06 -336081.61      7.1442398e-06  4.9770057      27.83345       3417.9855     -8.2078321     -10.926656      0.010845882    1.2430237e-09  8.2325943e-10  5.9952236e-08
     24530   245.3          1.7017373e-06  3.4016912e-06 -336081.61      7.1544205e-06  4.9770057      27.83345       3417.9855     -8.2078387     -10.926646      0.010898158    1.3123853e-09 -5.6314586e-10  5.5889779e-08
     24540   245.4          1.70411e-06    3.3310413e-06 -336081.61      7.1643959e-06  4.9770057      27.83345       3417.9855     -8.2078452     -10.926636      0.010950516    1.1393746e-09  4.4636519e-10  6.0800445e-08
     24550   245.5          1.7064337e-06  3.2603292e-06 -336081.61      7.1741652e-06  4.9770057      27.83345       3417.9855     -8.2078518     -10.926627      0.011002968    9.208936e-10  -3.6659504e-10  6.1585351e-08
     24560   245.6          1.7087083e-06  3.1896888e-06 -336081.61      7.1837279e-06  4.9770057      27.83345       3417.9855     -8.2078584     -10.926617      0.011055435    1.2004833e-09  1.2489131e-10  6.2616262e-08
     24570   245.7          1.7109336e-06  3.1189421e-06 -336081.61      7.1930835e-06  4.9770057      27.83345       3417.9855     -8.2078649     -10.926607      0.011107957    1.3011614e-09  1.3806133e-10  5.890533e-08 
     24580   245.8          1.7131095e-06  3.0481234e-06 -336081.61      7.2022314e-06  4.9770057      27.83345       3417.9855     -8.2078715     -10.926597      0.011160578    1.3463704e-09 -1.7753637e-11  6.7309623e-08
     24590   245.9          1.7152359e-06  2.9773641e-06 -336081.61      7.211171e-06   4.9770057      27.83345       3417.9855     -8.2078781     -10.926587      0.011213251    7.2852605e-10 -5.8552565e-10  6.3090005e-08
     24600   246            1.7173126e-06  2.906552e-06  -336081.61      7.2199019e-06  4.9770057      27.83345       3417.9855     -8.2078847     -10.926577      0.011265935    1.2925304e-09  7.270682e-10   6.3896622e-08
     24610   246.1          1.7193395e-06  2.8356302e-06 -336081.61      7.2284234e-06  4.9770057      27.83345       3417.9855     -8.2078913     -10.926568      0.011318708    1.391859e-09  -7.6150139e-10  6.7281398e-08
     24620   246.2          1.7213165e-06  2.7647997e-06 -336081.61      7.2367352e-06  4.9770057      27.83345       3417.9855     -8.2078979     -10.926558      0.011371559    1.1997912e-09  9.5218646e-10  6.47511e-08  
     24630   246.3          1.7232435e-06  2.6939019e-06 -336081.61      7.2448366e-06  4.9770057      27.83345       3417.9855     -8.2079045     -10.926548      0.011424436    8.2110122e-10 -9.1081409e-10  6.9484364e-08
     24640   246.4          1.7251204e-06  2.6229456e-06 -336081.61      7.2527272e-06  4.9770057      27.83345       3417.9855     -8.2079111     -10.926538      0.011477349    1.312743e-09   5.0935771e-10  6.2813858e-08
     24650   246.5          1.726947e-06   2.5520412e-06 -336081.61      7.2604066e-06  4.9770057      27.83345       3417.9855     -8.2079177     -10.926528      0.011530355    1.292032e-09  -5.1700866e-11  7.305773e-08 
     24660   246.6          1.7287232e-06  2.4811175e-06 -336081.61      7.2678743e-06  4.9770057      27.83345       3417.9855     -8.2079243     -10.926518      0.011583414    1.3257631e-09  5.438036e-11   6.766493e-08 
     24670   246.7          1.730449e-06   2.4101385e-06 -336081.61      7.2751298e-06  4.9770057      27.83345       3417.9855     -8.207931      -10.926508      0.011636482    8.274882e-10  -4.1139283e-10  6.8678812e-08
     24680   246.8          1.7321242e-06  2.3392221e-06 -336081.61      7.2821727e-06  4.9770057      27.83345       3417.9855     -8.2079376     -10.926499      0.011689622    1.2849014e-09  4.0729869e-10  7.0858875e-08
     24690   246.9          1.7337487e-06  2.2683043e-06 -336081.61      7.2890026e-06  4.9770057      27.83345       3417.9855     -8.2079442     -10.926489      0.011742838    1.3107581e-09 -2.9755599e-10  7.393488e-08 
     24700   247            1.7353225e-06  2.1973459e-06 -336081.61      7.295619e-06   4.9770057      27.83345       3417.9855     -8.2079509     -10.926479      0.01179609     1.1058944e-09  8.0224113e-10  7.0270776e-08
     24710   247.1          1.7368454e-06  2.126473e-06  -336081.61      7.3020217e-06  4.9770057      27.83345       3417.9855     -8.2079575     -10.926469      0.011849347    1.2652034e-09 -1.3661892e-09  7.2124215e-08
     24720   247.2          1.7383174e-06  2.0555953e-06 -336081.61      7.3082101e-06  4.9770057      27.83345       3417.9855     -8.2079641     -10.926459      0.011902703    1.074448e-09   9.6599963e-10  7.4881218e-08
     24730   247.3          1.7397383e-06  1.9847243e-06 -336081.61      7.3141839e-06  4.9770057      27.83345       3417.9855     -8.2079708     -10.926449      0.011956106    1.259971e-09  -2.2701519e-10  7.5178169e-08
     24740   247.4          1.7411081e-06  1.9139435e-06 -336081.61      7.3199429e-06  4.9770057      27.83345       3417.9855     -8.2079775     -10.926439      0.01200952     1.3312859e-09  1.3258689e-10  7.3275759e-08
     24750   247.5          1.7424267e-06  1.843196e-06  -336081.61      7.3254865e-06  4.9770057      27.83345       3417.9855     -8.2079841     -10.926429      0.012062987    9.0586705e-10 -3.0433708e-10  7.2207324e-08
     24760   247.6          1.7436941e-06  1.7724688e-06 -336081.61      7.3308145e-06  4.9770057      27.83345       3417.9855     -8.2079908     -10.926419      0.012116524    1.5813453e-09 -2.5898541e-10  8.2846212e-08
     24770   247.7          1.74491e-06    1.7018901e-06 -336081.61      7.3359266e-06  4.9770057      27.83345       3417.9855     -8.2079975     -10.926409      0.012170104    8.161234e-10   4.5025154e-10  7.0156501e-08
     24780   247.8          1.7460745e-06  1.6313659e-06 -336081.61      7.3408225e-06  4.9770057      27.83345       3417.9855     -8.2080041     -10.926399      0.012223674    1.502477e-09   1.9905621e-10  7.8611257e-08
     24790   247.9          1.7471876e-06  1.5609195e-06 -336081.61      7.3455018e-06  4.9770057      27.83345       3417.9855     -8.2080108     -10.926389      0.012277331    1.2551441e-09 -8.9900522e-10  7.624611e-08 
     24800   248            1.748249e-06   1.4906722e-06 -336081.61      7.3499644e-06  4.9770057      27.83345       3417.9855     -8.2080175     -10.926379      0.012331036    8.8135336e-10  4.6396665e-10  7.9940681e-08
     24810   248.1          1.7492588e-06  1.4205677e-06 -336081.61      7.3542098e-06  4.9770057      27.83345       3417.9855     -8.2080242     -10.926369      0.012384762    1.4272246e-09 -9.4706365e-11  7.9070941e-08
     24820   248.2          1.7502169e-06  1.3505837e-06 -336081.61      7.358238e-06   4.9770057      27.83345       3417.9855     -8.2080308     -10.926359      0.012438502    9.8784464e-10  5.9243113e-10  7.437498e-08 
     24830   248.3          1.7511233e-06  1.280913e-06  -336081.61      7.3620485e-06  4.9770057      27.83345       3417.9855     -8.2080375     -10.926349      0.012492321    1.5798201e-09 -2.9262931e-10  8.5989035e-08
     24840   248.4          1.7519779e-06  1.2115052e-06 -336081.61      7.3656412e-06  4.9770057      27.83345       3417.9855     -8.2080442     -10.926339      0.012546183    7.6278532e-10 -8.6639207e-10  7.727967e-08 
     24850   248.5          1.7527806e-06  1.1423455e-06 -336081.61      7.369016e-06   4.9770057      27.83345       3417.9855     -8.2080509     -10.926329      0.012600027    1.4132469e-09  1.1205006e-09  8.060619e-08 
     24860   248.6          1.7535314e-06  1.0736664e-06 -336081.61      7.3721725e-06  4.9770057      27.83345       3417.9855     -8.2080576     -10.926319      0.012653938    1.2357178e-09 -2.9416731e-10  7.9801315e-08
     24870   248.7          1.7542302e-06  1.0054717e-06 -336081.61      7.3751105e-06  4.9770057      27.83345       3417.9855     -8.2080643     -10.926309      0.0127079      1.2247162e-09  1.0213883e-10  8.456209e-08 
     24880   248.8          1.7548771e-06  9.3779804e-07 -336081.61      7.37783e-06    4.9770057      27.83345       3417.9855     -8.208071      -10.926299      0.012761884    9.9247722e-10 -5.5825202e-10  7.8456832e-08
     24890   248.9          1.7554719e-06  8.7092112e-07 -336081.61      7.3803307e-06  4.9770057      27.83345       3417.9855     -8.2080777     -10.926289      0.012815865    1.3156701e-09  2.8642792e-10  8.2807241e-08
     24900   249            1.7560146e-06  8.0501629e-07 -336081.61      7.3826126e-06  4.9770057      27.83345       3417.9855     -8.2080844     -10.926279      0.012869913    1.2214898e-09  6.3806386e-10  8.267517e-08 
     24910   249.1          1.7565053e-06  7.4019947e-07 -336081.61      7.3846753e-06  4.9770057      27.83345       3417.9855     -8.2080911     -10.926269      0.012924003    1.1336595e-09 -3.1219629e-10  8.5669384e-08
     24920   249.2          1.7569438e-06  6.7698157e-07 -336081.61      7.3865189e-06  4.9770057      27.83345       3417.9855     -8.2080979     -10.926259      0.012978091    1.1115629e-09 -6.9356607e-10  8.0975118e-08
     24930   249.3          1.7573302e-06  6.1582131e-07 -336081.61      7.3881433e-06  4.9770057      27.83345       3417.9855     -8.2081046     -10.926249      0.013032199    1.2677892e-09  9.2952606e-10  8.3417919e-08
     24940   249.4          1.7576643e-06  5.5727382e-07 -336081.61      7.3895482e-06  4.9770057      27.83345       3417.9855     -8.2081113     -10.926239      0.013086372    1.3591172e-09 -6.7004634e-10  8.9593367e-08
     24950   249.5          1.7579463e-06  5.024032e-07  -336081.61      7.3907337e-06  4.9770057      27.83345       3417.9855     -8.208118      -10.926229      0.013140565    1.0892427e-09  8.2681597e-10  7.8682642e-08
     24960   249.6          1.7581761e-06  4.5253729e-07 -336081.61      7.3916996e-06  4.9770057      27.83345       3417.9855     -8.2081247     -10.926219      0.013194744    1.0565819e-09 -1.256765e-09   8.8816839e-08
     24970   249.7          1.7583536e-06  4.0945646e-07 -336081.61      7.3924459e-06  4.9770057      27.83345       3417.9855     -8.2081314     -10.926209      0.013248968    1.4648458e-09  8.7811578e-10  8.1394567e-08
     24980   249.8          1.7584789e-06  3.7553538e-07 -336081.61      7.3929726e-06  4.9770057      27.83345       3417.9855     -8.2081382     -10.926199      0.013303245    8.8379245e-10  1.1666876e-10  8.9103857e-08
     24990   249.9          1.7585519e-06  3.5346486e-07 -336081.61      7.3932795e-06  4.9770057      27.83345       3417.9855     -8.2081449     -10.926189      0.013357515    1.5425672e-09 -1.6466987e-10  8.2301989e-08
     25000   125            2.2153317e-17  3.456368e-07  -336081.61      9.3136669e-17  4.9770057      27.83345       3417.9855     -8.2081508     -10.92623       0.013404972   -2.2960733e-10 -1.8332499e-10  9.7020136e-08
Loop time of 2513.75 on 2 procs for 4000 steps with 32526 atoms

97.8% CPU use with 1 MPI tasks x 2 OpenMP threads

Minimization stats:
  Stopping criterion = max iterations
  Energy initial, next-to-last, final = 
     -336081.607886735  -336081.607894055  -336081.607894055
  Force two-norm initial, final = 0.00018844227 3.456368e-07
  Force max component initial, final = 6.447561e-06 3.2235716e-09
  Final line search alpha, max atom move = 0 0
  Iterations, force evaluations = 4000 4002

MPI task timing breakdown:
Section |  min time  |  avg time  |  max time  |%varavg| %total
---------------------------------------------------------------
Pair    | 2506.3     | 2506.3     | 2506.3     |   0.0 | 99.71
Neigh   | 0          | 0          | 0          |   0.0 |  0.00
Comm    | 4.6476     | 4.6476     | 4.6476     |   0.0 |  0.18
Output  | 0.1994     | 0.1994     | 0.1994     |   0.0 |  0.01
Modify  | 0          | 0          | 0          |   0.0 |  0.00
Other   |            | 2.554      |            |       |  0.10

Nlocal:          32526 ave       32526 max       32526 min
Histogram: 1 0 0 0 0 0 0 0 0 0
Nghost:         150265 ave      150265 max      150265 min
Histogram: 1 0 0 0 0 0 0 0 0 0
Neighs:              0 ave           0 max           0 min
Histogram: 1 0 0 0 0 0 0 0 0 0
FullNghs:  3.69346e+06 ave 3.69346e+06 max 3.69346e+06 min
Histogram: 1 0 0 0 0 0 0 0 0 0

Total # of neighbors = 3693456
Ave neighs/atom = 113.55396
Neighbor list builds = 0
Dangerous builds = 0


write_data      fire_cg_${name}.data
write_data      fire_cg_raw_pyrTB_fire_cg_Ta7Fe6_x-12-10_y10-11_z10-12.data
System init for write_data ...

write_data      bi_minimised.data
System init for write_data ...

print """- step: $(step)
  atoms: $(atoms)
  temp: $(temp)
  press: $(press)
  pe: $(pe)
  ke: $(ke)
  etotal: $(etotal)
  vol: $(vol)
  avecx: $(avecx)
  avecy: $(avecy)
  avecz: $(avecz)
  bvecx: $(bvecx)
  bvecy: $(bvecy)
  bvecz: $(bvecz)
  cvecx: $(cvecx)
  cvecy: $(cvecy)
  cvecz: $(cvecz)
  lx: $(lx)
  ly: $(ly)
  lz: $(lz)
  cella: $(cella)
  cellb: $(cellb)
  cellc: $(cellc)
  cellalpha: $(cellalpha)
  cellbeta: $(cellbeta)
  cellgamma: $(cellgamma)
  pxx: $(pxx)
  pyy: $(pyy)
  pzz: $(pzz)
  pxy: $(pxy)
  pyz: $(pyz)
  pxz: $(pxz)
  xlo: $(xlo)
  xhi: $(xhi)
  ylo: $(ylo)
  yhi: $(yhi)
  zlo: $(zlo)
  zhi: $(zhi)
  xy: $(xy)
  xz: $(xz)
  yz: $(yz)
""" file bi_minimised.data.yaml screen yes universe no
- step: 25000
  atoms: 32526
  temp: 2.2153316750508415969e-17
  press: -6.3736586905650991497
  pe: -336081.60789405507967
  ke: 9.313666892393857043e-17
  etotal: -336081.60789405507967
  vol: 473484.09686157281976
  avecx: 4.9770056925371610745
  avecy: 0
  avecz: 0
  bvecx: 0
  bvecy: 27.833450383927104355
  bvecz: 0
  cvecx: 0
  cvecy: 0
  cvecz: 3417.9854693614774988
  lx: 4.9770056925371610745
  ly: 27.833450383927104355
  lz: 3417.9854693614774988
  cella: 4.9770056925371610745
  cellb: 27.833450383927104355
  cellc: 3417.9854693614774988
  cellalpha: 90
  cellbeta: 90
  cellgamma: 90
  pxx: -8.2081507582644501753
  pyy: -10.926230285369662454
  pzz: 0.013404971938816141047
  pxy: -2.2960732862847394617e-10
  pyz: 9.702013562169517542e-08
  pxz: -1.8332498708142017272e-10
  xlo: -3.7437160648999996953e-08
  xhi: 4.9770056551000001477
  ylo: -7.1927102516999998278e-08
  yhi: 27.833450312000000082
  zlo: 2.0384701054619167593
  zhi: 3420.0239394669392823
  xy: 0
  xz: 0
  yz: 0

[GRACE:debug, proc #0]: Data preparation timer: 2.13547e+09 mcs, graph execution time: 1.92133e+10 mcs, data preparation time fraction: 10.00 %
Total wall time: 6:04:28
