LAMMPS (29 Aug 2024 - Development - 5b9cae1)
  using 2 OpenMP thread(s) per MPI task
Reading data file ...
  orthogonal box = (-8.4684614e-08 2.7427645e-06 2.003578) to (4.8541311 27.913513 3890.325)
  1 by 1 by 1 MPI processor grid
  reading atoms ...
  37830 atoms
  reading velocities ...
  37830 velocities
  read_data CPU = 0.253 seconds
Changing box ...
  triclinic box = (-8.4684614e-08 2.7427645e-06 2.003578) to (4.8541311 27.913513 3890.325) with tilt (0 0 0)
[GRACE] TF version: 2.16.2
[GRACE] Neighbour padding is ON, padding fraction: 0.01, max padding fraction before reduction: 0.2, max number of reduction(s): 10
[GRACE] Loading /home/wz300646/GRACE/STATIC_FILES/POTENTIALS/GRACE-2L-OMAT
[GRACE] Model loaded
[GRACE] Mapping LAMMPS atom type #1(Fe) -> ACE species type #24
[GRACE] Mapping LAMMPS atom type #2(Ta) -> ACE species type #73

CITE-CITE-CITE-CITE-CITE-CITE-CITE-CITE-CITE-CITE-CITE-CITE-CITE

Your simulation uses code contributions which should be cited:
- Type Label Framework: https://doi.org/10.1021/acs.jpcb.3c08419
The log file lists these citations in BibTeX format.

CITE-CITE-CITE-CITE-CITE-CITE-CITE-CITE-CITE-CITE-CITE-CITE-CITE

Switching to 'neigh_modify every 1 delay 0 check yes' setting during minimization
Neighbor list info ...
  update: every = 1 steps, delay = 0 steps, check = yes
  max neighbors/atom: 2000, page size: 100000
  master list distance cutoff = 7.4
  ghost atom cutoff = 7.4
  binsize = 3.7, bins = 2 8 1051
  1 neighbor lists, perpetual/occasional/extra = 1 0 0
  (1) pair grace, perpetual
      attributes: full, newton on
      pair build: full/bin/atomonly
      stencil: full/bin/3d
      bin: standard
Setting up fire style minimization ...
  Unit style    : metal
  Current step  : 0
  Parameters for fire:
    dmax  delaystep dtgrow dtshrink alpha0 alphashrink tmax tmin   integrator   halfstepback   abcfire  
     0.1     20      1.1     0.5     0.25     0.99      10  0.02 eulerimplicit      yes          no     
[GRACE] Atoms padding: new num. of atoms = 38208 (incl. 0.989% fake atoms)
[GRACE] Neighbours padding: extending new num. of neighbours = 2433563 (incl. 0.990% fake neighbours)
Per MPI rank memory allocation (min/avg/max) = 77.83 | 77.83 | 77.83 Mbytes
   Step          Time           Temp          Fnorm          PotEng         KinEng           Lx             Ly             Lz            Pxx            Pyy            Pzz            Pxy            Pxz            Pyz      
         0   0              0              5.3224357     -381511.7       0              4.8541312      27.91351       3888.3214      12.054126      3.134937       11.346461      6.4729444e-05 -0.0001885658   2.1797073    
        10   0.01           0.024090238    4.925425      -381511.84      0.11779601     4.8541312      27.91351       3888.3214      10.836125      2.2068398      10.523592      5.8666444e-05 -0.00018970508  2.2221011    
        20   0.02           0.087790818    3.943514      -381512.15      0.42927796     4.8541312      27.91351       3888.3214      8.0706934      0.15281653     8.8469185      4.062986e-05  -0.00019859355  2.3403134    
        30   0.070738431    0.19226992     1.9241413     -381512.65      0.94015799     4.8541312      27.91351       3888.3214      3.8895152     -2.8780278      5.1082373     -8.9232374e-07 -0.00020416911  2.5578733    
        40   0.24463636     0.12129404     0.55524177    -381513.02      0.59310144     4.8541312      27.91351       3888.3214      1.5259115     -6.0069569     -6.0823211     -9.7076082e-06 -6.8761059e-05  0.78997386   
        50   0.5            0.019511831    0.22584051    -381513.11      0.095408601    4.8541312      27.91351       3888.3214      0.7246168     -7.3513431     -10.406369      1.7886025e-06 -2.0941213e-05  0.24063627   
        60   0.6            0.0070783889   0.10227105    -381513.14      0.034611779    4.8541312      27.91351       3888.3214      0.50196033    -7.6176272     -10.864168      2.4760215e-06 -1.3063086e-05  0.14275456   
        70   0.7            0.0054217123   0.056128306   -381513.15      0.026510991    4.8541312      27.91351       3888.3214      0.39279184    -7.7783029     -11.187372      1.8376875e-06 -1.1808231e-05  0.12322196   
        80   0.8            0.0057769934   0.037583674   -381513.16      0.028248239    4.8541312      27.91351       3888.3214      0.33660085    -7.8569252     -11.269277      1.0962178e-06 -1.0150574e-05  0.11423133   
        90   0.9            0.0064851154   0.026617894   -381513.17      0.031710801    4.8541312      27.91351       3888.3214      0.28269208    -7.9103074     -11.325651      3.6348381e-07 -8.8696078e-06  0.10323934   
       100   1              0.0071087912   0.019490669   -381513.17      0.03476044     4.8541312      27.91351       3888.3214      0.22696272    -7.9472073     -11.377023     -2.3681343e-07 -8.1434273e-06  0.095242315  
       110   1.1            0.0062763589   0.016269965   -381513.18      0.030690027    4.8541312      27.91351       3888.3214      0.19172227    -7.9871119     -11.448951     -2.874897e-07  -6.926583e-06   0.081138094  
       120   1.2            0.0047720494   0.012171119   -381513.18      0.023334281    4.8541312      27.91351       3888.3214      0.17200706    -8.0095809     -11.521969     -5.6476983e-08 -5.6515275e-06  0.065274832  
       130   1.3            0.0039910388   0.012844846   -381513.18      0.01951531     4.8541312      27.91351       3888.3214      0.15725242    -8.0243751     -11.564696      1.9850047e-08 -4.8627049e-06  0.056180395  
       140   1.4            0.0035489262   0.0098830649  -381513.18      0.017353475    4.8541312      27.91351       3888.3214      0.13952182    -8.0453636     -11.601192      2.8922336e-08 -4.3222874e-06  0.050216642  
       150   1.5            0.0030581011   0.0072389472  -381513.18      0.014953448    4.8541312      27.91351       3888.3214      0.13094731    -8.054047      -11.62776       7.5249883e-08 -3.8654557e-06  0.044678006  
       160   1.6            0.0027484498   0.0067378827  -381513.19      0.01343932     4.8541312      27.91351       3888.3214      0.1218493     -8.0624862     -11.649196      8.6099216e-08 -3.5327878e-06  0.040866486  
       170   1.7            0.0026186176   0.0073443545  -381513.19      0.012804469    4.8541312      27.91351       3888.3214      0.11348481    -8.0712625     -11.664986      5.5943808e-08 -3.3027813e-06  0.038316366  
       180   1.8            0.0024812216   0.0055266666  -381513.19      0.012132633    4.8541312      27.91351       3888.3214      0.10800523    -8.0755249     -11.677917      3.6000408e-08 -3.0972783e-06  0.035863445  
       190   1.9            0.0023515456   0.0046715591  -381513.19      0.011498545    4.8541312      27.91351       3888.3214      0.10183278    -8.081402      -11.690624      2.1869063e-08 -2.9078843e-06  0.033730374  
       200   2              0.0022688504   0.0040618142  -381513.19      0.011094184    4.8541312      27.91351       3888.3214      0.097065996   -8.0854652     -11.700681      4.6071275e-12 -2.7487398e-06  0.031967176  
       210   2.1            0.0022244112   0.0039392044  -381513.19      0.010876886    4.8541312      27.91351       3888.3214      0.09232091    -8.0892643     -11.708954     -2.8224876e-08 -2.6219261e-06  0.030603929  
       220   2.2            0.0022000707   0.0037081422  -381513.19      0.010757866    4.8541312      27.91351       3888.3214      0.08825574    -8.0922323     -11.716026     -5.7834634e-08 -2.5147207e-06  0.029384303  
       230   2.3            0.0021852208   0.0034607654  -381513.19      0.010685254    4.8541312      27.91351       3888.3214      0.084332392   -8.0952277     -11.722526     -8.7360091e-08 -2.4193297e-06  0.028387731  
       240   2.4            0.0021772799   0.0031352968  -381513.19      0.010646424    4.8541312      27.91351       3888.3214      0.080862994   -8.0975497     -11.728293     -1.1592844e-07 -2.3333253e-06  0.027456219  
       250   2.5            0.0021670749   0.0028191287  -381513.19      0.010596524    4.8541312      27.91351       3888.3214      0.077711753   -8.0995898     -11.733732     -1.4118911e-07 -2.2532804e-06  0.026613878  
       260   2.6            0.0021596234   0.0024703743  -381513.19      0.010560088    4.8541312      27.91351       3888.3214      0.074668024   -8.1014654     -11.738864     -1.6498314e-07 -2.1798512e-06  0.025819613  
       270   2.7            0.0021584327   0.002243976   -381513.19      0.010554265    4.8541312      27.91351       3888.3214      0.071920495   -8.1031255     -11.743429     -1.8837188e-07 -2.1134677e-06  0.025102848  
       280   2.8            0.0021541981   0.0021956579  -381513.19      0.010533559    4.8541312      27.91351       3888.3214      0.069297967   -8.1045019     -11.747799     -2.0891251e-07 -2.0505871e-06  0.024419755  
       290   2.9            0.0021477005   0.0019949802  -381513.19      0.010501788    4.8541312      27.91351       3888.3214      0.066829557   -8.1058261     -11.751953     -2.2735123e-07 -1.9912142e-06  0.023765122  
       300   3              0.0021379029   0.0018331774  -381513.19      0.010453879    4.8541312      27.91351       3888.3214      0.064520522   -8.1069227     -11.756043     -2.4296723e-07 -1.9330054e-06  0.023129836  
       310   3.1            0.0021258301   0.0017440894  -381513.19      0.010394846    4.8541312      27.91351       3888.3214      0.062429078   -8.1078009     -11.759968     -2.568007e-07  -1.8769697e-06  0.022522418  
       320   3.2            0.0021104699   0.0016592404  -381513.19      0.010319738    4.8541312      27.91351       3888.3214      0.060391103   -8.1087094     -11.763785     -2.6776591e-07 -1.8234566e-06  0.021907145  
       330   3.3            0.002091292    0.0015139105  -381513.19      0.010225962    4.8541312      27.91351       3888.3214      0.058514197   -8.1093315     -11.767466     -2.7721344e-07 -1.7692781e-06  0.021307015  
       340   3.4            0.0020695872   0.001427784   -381513.19      0.01011983     4.8541312      27.91351       3888.3214      0.056728025   -8.1098919     -11.771088     -2.8420196e-07 -1.7183564e-06  0.020720856  
       350   3.5            0.0020451452   0.0013606511  -381513.19      0.010000314    4.8541312      27.91351       3888.3214      0.055053864   -8.110411      -11.77465      -2.8920293e-07 -1.6688581e-06  0.020140533  
       360   3.6            0.0020184468   0.0012922649  -381513.19      0.009869765    4.8541312      27.91351       3888.3214      0.05345637    -8.1108003     -11.778114     -2.9318901e-07 -1.619164e-06   0.01959057   
       370   3.7            0.0019895974   0.0012927437  -381513.19      0.0097286977   4.8541312      27.91351       3888.3214      0.051948994   -8.1110922     -11.7815       -2.9509122e-07 -1.5730765e-06  0.019042546  
       380   3.8            0.0019581773   0.0012023374  -381513.19      0.0095750604   4.8541312      27.91351       3888.3214      0.05053463    -8.1113401     -11.784884     -2.962467e-07  -1.524812e-06   0.01848276   
       390   3.9            0.0019250017   0.0011518309  -381513.19      0.0094128387   4.8541312      27.91351       3888.3214      0.049158823   -8.1114873     -11.788163     -2.9519317e-07 -1.480494e-06   0.01794974   
       400   4              0.0018904043   0.0011394391  -381513.19      0.0092436651   4.8541312      27.91351       3888.3214      0.04790777    -8.111574      -11.791367     -2.9331145e-07 -1.4357943e-06  0.017437349  
       410   4.1            0.0018548236   0.0011370234  -381513.19      0.0090696833   4.8541312      27.91351       3888.3214      0.04668599    -8.1116146     -11.794489     -2.9092797e-07 -1.3923398e-06  0.01692792   
       420   4.2            0.0018183878   0.0010696182  -381513.19      0.00889152     4.8541312      27.91351       3888.3214      0.045537934   -8.1116098     -11.797566     -2.8711202e-07 -1.3533731e-06  0.016435055  
       430   4.3            0.0017823352   0.0010440317  -381513.19      0.0087152307   4.8541312      27.91351       3888.3214      0.044442212   -8.1115126     -11.800513     -2.8306582e-07 -1.3136923e-06  0.015970071  
       440   4.4            0.0017466605   0.0010330722  -381513.19      0.0085407892   4.8541312      27.91351       3888.3214      0.043431258   -8.1113998     -11.803396     -2.7871198e-07 -1.2737148e-06  0.015515479  
       450   4.5            0.0017114861   0.0010134816  -381513.19      0.0083687939   4.8541312      27.91351       3888.3214      0.042452942   -8.1112372     -11.806159     -2.7413391e-07 -1.237601e-06   0.015086679  
       460   4.6            0.0016771432   0.0010330835  -381513.19      0.0082008647   4.8541312      27.91351       3888.3214      0.041500444   -8.1110275     -11.808838     -2.6918275e-07 -1.2032999e-06  0.014674629  
       470   4.7            0.0016438094   0.0010222768  -381513.19      0.0080378695   4.8541312      27.91351       3888.3214      0.040601164   -8.1107501     -11.811401     -2.6417414e-07 -1.1695288e-06  0.014279062  
       480   4.8            0.0016115629   0.0010179824  -381513.19      0.0078801915   4.8541312      27.91351       3888.3214      0.039752266   -8.1103964     -11.813906     -2.589204e-07  -1.1388124e-06  0.013905136  
       490   4.9            0.0015807169   0.0010077555  -381513.19      0.007729361    4.8541312      27.91351       3888.3214      0.038932649   -8.1100817     -11.816288     -2.5386716e-07 -1.1085325e-06  0.013547716  
       500   5              0.0015511565   0.0010229583  -381513.19      0.007584817    4.8541312      27.91351       3888.3214      0.038192658   -8.1097154     -11.818565     -2.4875457e-07 -1.079506e-06   0.013216547  
       510   5.1            0.0015229253   0.0010285853  -381513.19      0.0074467726   4.8541312      27.91351       3888.3214      0.037440596   -8.1092807     -11.820759     -2.4349671e-07 -1.0536673e-06  0.012890388  
       520   5.2            0.0014961631   0.0010272888  -381513.19      0.0073159115   4.8541312      27.91351       3888.3214      0.036759237   -8.1088205     -11.822872     -2.3831693e-07 -1.0292627e-06  0.012600495  
       530   5.3            0.0014708306   0.0010364154  -381513.19      0.0071920408   4.8541312      27.91351       3888.3214      0.036119747   -8.1083655     -11.824857     -2.3348003e-07 -1.0055731e-06  0.012308342  
       540   5.4            0.0014468286   0.0010541124  -381513.19      0.0070746764   4.8541312      27.91351       3888.3214      0.035456871   -8.1078413     -11.826818     -2.2906008e-07 -9.825464e-07   0.012028303  
       550   5.5            0.0014242118   0.0010996587  -381513.19      0.0069640853   4.8541312      27.91351       3888.3214      0.034881252   -8.1073033     -11.828615     -2.2450222e-07 -9.597019e-07   0.011780875  
       560   5.6            0.0014028349   0.0010822368  -381513.19      0.0068595569   4.8541312      27.91351       3888.3214      0.034288857   -8.1066948     -11.830373     -2.197081e-07  -9.3897523e-07  0.011546276  
       570   5.7            0.001382768    0.0011296841  -381513.19      0.0067614341   4.8541312      27.91351       3888.3214      0.033769433   -8.1061201     -11.832027     -2.1511613e-07 -9.2185834e-07  0.011331327  
       580   5.8            0.0013638897   0.0011191401  -381513.19      0.0066691234   4.8541312      27.91351       3888.3214      0.03324854    -8.1054842     -11.833656     -2.1119133e-07 -9.031339e-07   0.011100362  
       590   5.9            0.0013460713   0.0011751913  -381513.19      0.0065819951   4.8541312      27.91351       3888.3214      0.032762003   -8.104848      -11.835148     -2.0704287e-07 -8.8378026e-07  0.010903178  
       600   6              0.0013293232   0.0011692285  -381513.19      0.0065001008   4.8541312      27.91351       3888.3214      0.032265619   -8.104148      -11.83662      -2.0239402e-07 -8.696675e-07   0.010714014  
       610   6.1            0.0013135344   0.0011974866  -381513.19      0.0064228968   4.8541312      27.91351       3888.3214      0.031872735   -8.1034847     -11.837996     -1.9878478e-07 -8.5261698e-07  0.010528959  
       620   6.2            0.00129861     0.0012411819  -381513.19      0.0063499199   4.8541312      27.91351       3888.3214      0.03142176    -8.1027541     -11.839347     -1.946709e-07  -8.3717534e-07  0.01035855   
       630   6.3            0.0012845178   0.0012552603  -381513.19      0.006281012    4.8541312      27.91351       3888.3214      0.031031588   -8.1020437     -11.840612     -1.9064725e-07 -8.2411567e-07  0.010187072  
       640   3.2            5.7940528e-09  0.0012440337  -381513.19      2.8331655e-08  4.8541312      27.91351       3888.3214      0.030866218   -8.1070159     -11.873876      1.9102753e-07 -2.9897937e-07  0.003206571  
       650   3.25           4.9845027e-08  0.0011812769  -381513.19      2.4373132e-07  4.8541312      27.91351       3888.3214      0.030852833   -8.1070113     -11.873886      1.9091323e-07 -2.9824326e-07  0.0032066204 
       660   4.83153        1.4948321e-07  0.0011578983  -381513.19      7.3094033e-07  4.8541312      27.91351       3888.3214      0.030843513   -8.1070109     -11.873895      1.9079964e-07 -2.983903e-07   0.0032062353 
       670   6.7            5.0376247e-07  0.0011555643  -381513.19      2.4632887e-06  4.8541312      27.91351       3888.3214      0.030826415   -8.1070175     -11.873919      1.9055314e-07 -2.9843598e-07  0.0032064656 
       680   6.8            1.1133909e-06  0.0011490129  -381513.19      5.4442389e-06  4.8541312      27.91351       3888.3214      0.030797706   -8.1070271     -11.873959      1.9011605e-07 -2.9847555e-07  0.0032068287 
       690   6.9            1.9970133e-06  0.0011418342  -381513.19      9.7649596e-06  4.8541312      27.91351       3888.3214      0.03075767    -8.10704       -11.874014      1.8954068e-07 -2.9852447e-07  0.003207264  
       700   7              3.1668377e-06  0.0011335353  -381513.19      1.5485146e-05  4.8541312      27.91351       3888.3214      0.030706326   -8.1070564     -11.874085      1.8880008e-07 -2.9881403e-07  0.0032077389 
       710   7.1            4.6310272e-06  0.0011239039  -381513.19      2.2644714e-05  4.8541312      27.91351       3888.3214      0.030643565   -8.107076      -11.87417       1.8779897e-07 -2.9895312e-07  0.0032082546 
       720   7.2            6.3935694e-06  0.0011128513  -381513.19      3.1263161e-05  4.8541312      27.91351       3888.3214      0.030569469   -8.1070986     -11.87427       1.8667603e-07 -2.9916587e-07  0.0032087861 
       730   7.3            8.4540621e-06  0.0011004262  -381513.19      4.1338521e-05  4.8541312      27.91351       3888.3214      0.030484184   -8.1071238     -11.874384      1.8534241e-07 -2.9963986e-07  0.003209318  
       740   7.4            1.0808887e-05  0.001086694   -381513.19      5.2853099e-05  4.8541312      27.91351       3888.3214      0.030387947   -8.1071514     -11.874512      1.8380143e-07 -2.9973208e-07  0.0032098423 
       750   7.5            1.345136e-05   0.0010717299  -381513.19      6.5774218e-05  4.8541312      27.91351       3888.3214      0.030281059   -8.107181      -11.874655      1.8227221e-07 -3.0001783e-07  0.0032103519 
       760   7.6            1.6371735e-05  0.0010556204  -381513.19      8.0054214e-05  4.8541312      27.91351       3888.3214      0.030163875   -8.1072122     -11.874811      1.8049798e-07 -3.0062426e-07  0.0032108468 
       770   7.7            1.9557848e-05  0.0010384584  -381513.19      9.5633615e-05  4.8541312      27.91351       3888.3214      0.030036803   -8.1072445     -11.874981      1.7831184e-07 -3.0097143e-07  0.0032113323 
       780   7.8            2.2995376e-05  0.0010203367  -381513.19      0.00011244238  4.8541312      27.91351       3888.3214      0.029900292   -8.1072775     -11.875163      1.7625336e-07 -3.0110661e-07  0.0032118196 
       790   7.9            2.6668053e-05  0.0010013517  -381513.19      0.00013040097  4.8541312      27.91351       3888.3214      0.029754825   -8.1073107     -11.875359      1.7409068e-07 -3.0177801e-07  0.0032123269 
       800   8              3.0558157e-05  0.00098160087 -381513.19      0.00014942273  4.8541312      27.91351       3888.3214      0.029600907   -8.1073436     -11.875566      1.7164528e-07 -3.0205601e-07  0.0032128806 
       810   8.1            3.4646713e-05  0.00096118242 -381513.19      0.00016941487  4.8541312      27.91351       3888.3214      0.029439065   -8.1073756     -11.875785      1.6906922e-07 -3.0244225e-07  0.0032135138 
       820   8.2            3.891375e-05   0.00094019772 -381513.19      0.00019027976  4.8541312      27.91351       3888.3214      0.029269832   -8.1074063     -11.876016      1.6641725e-07 -3.0310025e-07  0.003214268  
       830   8.3            4.3338639e-05  0.00091875075 -381513.19      0.0002119165   4.8541312      27.91351       3888.3214      0.029093749   -8.107435      -11.876258      1.6375587e-07 -3.0350711e-07  0.0032151924 
       840   8.4            4.7900299e-05  0.00089694808 -381513.19      0.00023422202  4.8541312      27.91351       3888.3214      0.028911349   -8.1074613     -11.876511      1.6101264e-07 -3.0416757e-07  0.003216343  
       850   8.5            5.2577426e-05  0.00087489914 -381513.19      0.00025709215  4.8541312      27.91351       3888.3214      0.028723161   -8.1074845     -11.876775      1.5814193e-07 -3.050245e-07   0.0032177809 
       860   8.6            5.7348731e-05  0.00085271558 -381513.19      0.0002804228   4.8541312      27.91351       3888.3214      0.028529693   -8.1075043     -11.877049      1.5521268e-07 -3.0544083e-07  0.0032195732 
       870   8.7            6.2193139e-05  0.0008305102  -381513.19      0.00030411089  4.8541312      27.91351       3888.3214      0.028331438   -8.1075201     -11.877332      1.5222031e-07 -3.0591662e-07  0.00322179   
       880   8.8            6.708997e-05   0.00080839595 -381513.19      0.00032805533  4.8541312      27.91351       3888.3214      0.028128858   -8.1075315     -11.877625      1.4934594e-07 -3.0728056e-07  0.0032245001 
       890   8.9            7.2019116e-05  0.00078648471 -381513.19      0.00035215778  4.8541312      27.91351       3888.3214      0.027922393   -8.107538      -11.877928      1.4642325e-07 -3.0760606e-07  0.003227771  
       900   9              7.6961206e-05  0.00076488576 -381513.19      0.00037632352  4.8541312      27.91351       3888.3214      0.027712445   -8.1075393     -11.87824       1.4315845e-07 -3.0848356e-07  0.0032316673 
       910   9.1            8.1897746e-05  0.00074370438 -381513.19      0.00040046213  4.8541312      27.91351       3888.3214      0.027499382   -8.107535      -11.878561      1.4045078e-07 -3.088708e-07   0.0032362426 
       920   9.2            8.6811255e-05  0.00072304045 -381513.19      0.00042448812  4.8541312      27.91351       3888.3214      0.027283542   -8.1075247     -11.878891      1.3729738e-07 -3.0965199e-07  0.0032415417 
       930   9.3            9.1685391e-05  0.0007029871  -381513.19      0.00044832158  4.8541312      27.91351       3888.3214      0.027065222   -8.1075082     -11.879229      1.3460728e-07 -3.1079567e-07  0.0032475924 
       940   9.4            9.6505062e-05  0.0006836296  -381513.2       0.00047188872  4.8541312      27.91351       3888.3214      0.026844683   -8.1074853     -11.879576      1.3158346e-07 -3.113974e-07   0.0032544119 
       950   9.5            0.00010125653  0.00066504428 -381513.2       0.00049512236  4.8541312      27.91351       3888.3214      0.026622158   -8.1074557     -11.879932      1.286053e-07  -3.1266743e-07  0.0032619939 
       960   9.6            0.00010592751  0.00064729776 -381513.2       0.00051796243  4.8541312      27.91351       3888.3214      0.026397839   -8.1074194     -11.880296      1.262765e-07  -3.1369157e-07  0.0032703199 
       970   9.7            0.00011050724  0.00063044638 -381513.2       0.0005403563   4.8541312      27.91351       3888.3214      0.026171893   -8.1073762     -11.880669      1.236819e-07  -3.1504906e-07  0.0032793488 
       980   9.8            0.00011498655  0.00061453587 -381513.2       0.00056225917  4.8541312      27.91351       3888.3214      0.025944455   -8.107326      -11.881049      1.2088047e-07 -3.1636505e-07  0.0032890294 
       990   9.9            0.00011935792  0.00059960133 -381513.2       0.00058363421  4.8541312      27.91351       3888.3214      0.025715638   -8.1072688     -11.881438      1.1852313e-07 -3.1733788e-07  0.0032992859 
      1000   10             0.00012361549  0.00058566731 -381513.2       0.00060445278  4.8541312      27.91351       3888.3214      0.025485532   -8.1072046     -11.881835      1.1652794e-07 -3.1786654e-07  0.0033100383 
      1010   10.1           0.00012775505  0.00057274833 -381513.2       0.00062469433  4.8541312      27.91351       3888.3214      0.025254209   -8.1071333     -11.88224       1.1415571e-07 -3.1966605e-07  0.0033211956 
      1020   10.2           0.00013177403  0.00056084942 -381513.2       0.0006443463   4.8541312      27.91351       3888.3214      0.025021722   -8.107055      -11.882653      1.1206583e-07 -3.2019141e-07  0.0033326572 
      1030   10.3           0.00013567144  0.00054996691 -381513.2       0.00066340379  4.8541312      27.91351       3888.3214      0.024788112   -8.1069697     -11.883073      1.0998378e-07 -3.2114222e-07  0.0033443229 
      1040   10.4           0.00013944776  0.00054008935 -381513.2       0.00068186914  4.8541312      27.91351       3888.3214      0.024553414   -8.1068775     -11.883501      1.0795971e-07 -3.2313147e-07  0.0033560909 
      1050   10.5           0.00014310481  0.00053119847 -381513.2       0.00069975135  4.8541312      27.91351       3888.3214      0.024317645   -8.1067784     -11.883937      1.0607829e-07 -3.2322561e-07  0.0033678629 
      1060   10.6           0.00014664567  0.00052327024 -381513.2       0.00071706534  4.8541312      27.91351       3888.3214      0.024080826   -8.1066726     -11.884379      1.0414555e-07 -3.2496927e-07  0.0033795458 
      1070   10.7           0.00015007442  0.00051627586 -381513.2       0.00073383122  4.8541312      27.91351       3888.3214      0.023842965   -8.1065601     -11.884829      1.0240252e-07 -3.2522399e-07  0.0033910547 
      1080   10.8           0.00015339608  0.00051018277 -381513.2       0.00075007337  4.8541312      27.91351       3888.3214      0.023604073   -8.106441      -11.885285      1.0096902e-07 -3.2592999e-07  0.0034023124 
      1090   10.9           0.00015661631  0.00050495546 -381513.2       0.00076581964  4.8541312      27.91351       3888.3214      0.023364155   -8.1063155     -11.885748      9.9819094e-08 -3.2777043e-07  0.0034132519 
      1100   11             0.00015974136  0.00050055624 -381513.2       0.00078110042  4.8541312      27.91351       3888.3214      0.023123215   -8.1061836     -11.886217      9.8786196e-08 -3.2727879e-07  0.003423815  
      1110   11.1           0.00016277779  0.00049694598 -381513.2       0.00079594789  4.8541312      27.91351       3888.3214      0.022881257   -8.1060455     -11.886691      9.728015e-08  -3.2784113e-07  0.0034339555 
      1120   11.2           0.00016573237  0.0004940845  -381513.2       0.00081039518  4.8541312      27.91351       3888.3214      0.022638287   -8.1059013     -11.887172      9.5923666e-08 -3.2977374e-07  0.0034436377 
      1130   11.3           0.00016861196  0.00049193089 -381513.2       0.00082447576  4.8541312      27.91351       3888.3214      0.022394307   -8.105751      -11.887658      9.5041298e-08 -3.3069784e-07  0.0034528326 
      1140   11.4           0.00017142335  0.00049044389 -381513.2       0.00083822284  4.8541312      27.91351       3888.3214      0.022149317   -8.105595      -11.888149      9.3746091e-08 -3.2985243e-07  0.0034615228 
      1150   11.5           0.00017417318  0.00048958187 -381513.2       0.00085166889  4.8541312      27.91351       3888.3214      0.021903323   -8.1054331     -11.888645      9.2311209e-08 -3.290689e-07   0.0034696913 
      1160   11.6           0.00017686785  0.00048930288 -381513.2       0.00086484525  4.8541312      27.91351       3888.3214      0.021656333   -8.1052657     -11.889146      9.1892076e-08 -3.2977927e-07  0.0034773377 
      1170   11.7           0.0001795135   0.00048956481 -381513.2       0.00087778186  4.8541312      27.91351       3888.3214      0.021408345   -8.1050928     -11.889651      9.1129173e-08 -3.3105103e-07  0.0034844578 
      1180   11.8           0.00018211589  0.00049032515 -381513.2       0.00089050702  4.8541312      27.91351       3888.3214      0.021159364   -8.1049144     -11.89016       8.9625596e-08 -3.3131939e-07  0.0034910617 
      1190   11.9           0.00018468047  0.00049154118 -381513.2       0.00090304725  4.8541312      27.91351       3888.3214      0.020909394   -8.1047308     -11.890673      8.9050226e-08 -3.3218652e-07  0.0034971553 
      1200   12             0.00018721227  0.00049316993 -381513.2       0.00091542721  4.8541312      27.91351       3888.3214      0.020658436   -8.1045421     -11.89119       8.8381641e-08 -3.3301955e-07  0.003502748  
      1210   12.1           0.00018971596  0.00049516835 -381513.2       0.00092766969  4.8541312      27.91351       3888.3214      0.020406488   -8.1043483     -11.89171       8.7518471e-08 -3.3342688e-07  0.0035078627 
      1220   12.2           0.00019219579  0.00049749351 -381513.2       0.00093979552  4.8541312      27.91351       3888.3214      0.020153561   -8.1041495     -11.892234      8.6679398e-08 -3.3296251e-07  0.0035125061 
      1230   12.3           0.00019465564  0.00050010284 -381513.2       0.00095182366  4.8541312      27.91351       3888.3214      0.019899644   -8.1039459     -11.89276       8.596651e-08  -3.3294415e-07  0.0035167006 
      1240   12.4           0.00019709902  0.00050295449 -381513.2       0.00096377124  4.8541312      27.91351       3888.3214      0.01964474    -8.1037376     -11.89329       8.5224434e-08 -3.3295246e-07  0.0035204694 
      1250   12.5           0.00019952905  0.0005060077  -381513.2       0.00097565358  4.8541312      27.91351       3888.3214      0.019388849   -8.1035246     -11.893823      8.447249e-08  -3.3216249e-07  0.0035238187 
      1260   12.6           0.00020194853  0.00050922312 -381513.2       0.00098748427  4.8541312      27.91351       3888.3214      0.019131964   -8.103307      -11.894359      8.3677029e-08 -3.3163413e-07  0.0035267817 
      1270   12.7           0.00020435988  0.00051256324 -381513.2       0.00099927529  4.8541312      27.91351       3888.3214      0.018874081   -8.1030848     -11.894897      8.2802788e-08 -3.3073973e-07  0.00352937   
      1280   12.8           0.00020676526  0.00051599259 -381513.2       0.001011037    4.8541312      27.91351       3888.3214      0.018615197   -8.1028583     -11.895438      8.2393231e-08 -3.3088703e-07  0.0035316006 
      1290   12.9           0.00020916648  0.00051947819 -381513.2       0.0010227785   4.8541312      27.91351       3888.3214      0.018355302   -8.1026274     -11.895982      8.1438264e-08 -3.2984369e-07  0.0035334987 
      1300   13             0.00021156512  0.00052298939 -381513.2       0.0010345073   4.8541312      27.91351       3888.3214      0.018094394   -8.1023921     -11.896527      8.1289784e-08 -3.316369e-07   0.0035350725 
      1310   13.1           0.00021396246  0.00052649841 -381513.2       0.0010462298   4.8541312      27.91351       3888.3214      0.017832453   -8.1021527     -11.897076      8.0412937e-08 -3.3143663e-07  0.0035363466 
      1320   13.2           0.00021635958  0.00052997991 -381513.2       0.0010579512   4.8541312      27.91351       3888.3214      0.017569483   -8.101909      -11.897626      8.0371791e-08 -3.3225818e-07  0.0035373342 
      1330   13.3           0.00021875735  0.00053341143 -381513.2       0.0010696758   4.8541312      27.91351       3888.3214      0.01730546    -8.1016612     -11.898179      7.9374823e-08 -3.3222582e-07  0.0035380499 
      1340   13.4           0.00022115643  0.00053677282 -381513.2       0.0010814067   4.8541312      27.91351       3888.3214      0.017040388   -8.1014094     -11.898734      7.8926527e-08 -3.3147618e-07  0.0035385041 
      1350   13.5           0.00022355732  0.00054004659 -381513.2       0.0010931466   4.8541312      27.91351       3888.3214      0.01677424    -8.1011535     -11.899292      7.7685706e-08 -3.2891558e-07  0.003538721  
      1360   13.6           0.00022596038  0.00054321738 -381513.2       0.001104897    4.8541312      27.91351       3888.3214      0.016507027   -8.1008936     -11.899851      7.7407986e-08 -3.2870635e-07  0.003538696  
      1370   13.7           0.00022836582  0.00054627206 -381513.2       0.0011166591   4.8541312      27.91351       3888.3214      0.016238707   -8.1006297     -11.900413      7.653057e-08  -3.2750073e-07  0.0035384595 
      1380   13.8           0.00023077376  0.00054919943 -381513.2       0.0011284334   4.8541312      27.91351       3888.3214      0.015969309   -8.1003619     -11.900977      7.6348519e-08 -3.2869755e-07  0.0035379995 
      1390   13.9           0.00023318419  0.00055199008 -381513.2       0.0011402199   4.8541312      27.91351       3888.3214      0.015698777   -8.1000902     -11.901543      7.6010604e-08 -3.2900855e-07  0.0035373512 
      1400   14             0.00023559706  0.00055463631 -381513.2       0.0011520182   4.8541312      27.91351       3888.3214      0.01542714    -8.0998147     -11.902112      7.5230733e-08 -3.2935508e-07  0.0035364988 
      1410   14.1           0.00023801219  0.00055713184 -381513.2       0.0011638277   4.8541312      27.91351       3888.3214      0.01515436    -8.0995353     -11.902682      7.4464311e-08 -3.2694275e-07  0.0035354696 
      1420   14.2           0.0002404294   0.00055947183 -381513.2       0.0011756474   4.8541312      27.91351       3888.3214      0.014880447   -8.0992522     -11.903255      7.3406153e-08 -3.2545282e-07  0.0035342575 
      1430   14.3           0.00024284841  0.00056165269 -381513.2       0.0011874758   4.8541312      27.91351       3888.3214      0.014605382   -8.0989652     -11.90383       7.3194219e-08 -3.2470462e-07  0.0035328774 
      1440   14.4           0.00024526892  0.000563672   -381513.2       0.0011993116   4.8541312      27.91351       3888.3214      0.014329159   -8.0986745     -11.904407      7.2124698e-08 -3.2351112e-07  0.0035313307 
      1450   14.5           0.0002476906   0.00056552836 -381513.2       0.001211153    4.8541312      27.91351       3888.3214      0.014051781   -8.0983801     -11.904986      7.260247e-08  -3.2611072e-07  0.0035296216 
      1460   14.6           0.00025011306  0.00056722154 -381513.2       0.0012229984   4.8541312      27.91351       3888.3214      0.013773219   -8.0980819     -11.905568      7.1427164e-08 -3.2438761e-07  0.0035277678 
      1470   14.7           0.00025253593  0.00056875203 -381513.2       0.0012348456   4.8541312      27.91351       3888.3214      0.013493505   -8.0977801     -11.906151      7.0790325e-08 -3.2376993e-07  0.0035257489 
      1480   14.8           0.00025495878  0.00057012146 -381513.2       0.0012466928   4.8541312      27.91351       3888.3214      0.013212594   -8.0974745     -11.906737      6.9888856e-08 -3.2130034e-07  0.0035235972 
      1490   14.9           0.00025738118  0.00057133212 -381513.2       0.0012585378   4.8541312      27.91351       3888.3214      0.012930525   -8.0971653     -11.907325      6.9037797e-08 -3.2040938e-07  0.0035212948 
      1500   15             0.00025980268  0.0005723872  -381513.2       0.0012703785   4.8541312      27.91351       3888.3214      0.012647265   -8.0968525     -11.907915      6.8807384e-08 -3.1985679e-07  0.003518858  
      1510   15.1           0.00026222284  0.00057329073 -381513.2       0.0012822125   4.8541312      27.91351       3888.3214      0.012362837   -8.0965359     -11.908508      6.8136721e-08 -3.2103886e-07  0.00351628   
      1520   15.2           0.00026464118  0.00057404734 -381513.2       0.0012940377   4.8541312      27.91351       3888.3214      0.01207723    -8.0962158     -11.909102      6.7806677e-08 -3.2012299e-07  0.0035135723 
      1530   15.3           0.00026705723  0.00057466257 -381513.2       0.0013058517   4.8541312      27.91351       3888.3214      0.01179045    -8.095892      -11.909699      6.6349879e-08 -3.1767885e-07  0.0035107381 
      1540   15.4           0.00026947052  0.00057514249 -381513.2       0.0013176521   4.8541312      27.91351       3888.3214      0.011502517   -8.0955646     -11.910298      6.5946733e-08 -3.1652116e-07  0.003507763  
      1550   15.5           0.00027188057  0.00057549391 -381513.2       0.0013294367   4.8541312      27.91351       3888.3214      0.011213404   -8.0952335     -11.9109        6.4815769e-08 -3.1464072e-07  0.0035046772 
      1560   15.6           0.00027428689  0.00057572431 -381513.2       0.0013412031   4.8541312      27.91351       3888.3214      0.010923165   -8.0948989     -11.911503      6.4817141e-08 -3.1601354e-07  0.0035014541 
      1570   15.7           0.00027668899  0.00057584164 -381513.2       0.0013529488   4.8541312      27.91351       3888.3214      0.010631763   -8.0945607     -11.912109      6.4268996e-08 -3.1635698e-07  0.0034981198 
      1580   15.8           0.00027908639  0.00057585456 -381513.2       0.0013646716   4.8541312      27.91351       3888.3214      0.010339237   -8.0942188     -11.912717      6.2781016e-08 -3.1330216e-07  0.0034946568 
      1590   15.9           0.00028147861  0.00057577211 -381513.2       0.0013763691   4.8541312      27.91351       3888.3214      0.01004559    -8.0938734     -11.913327      6.2299775e-08 -3.1202122e-07  0.0034910814 
      1600   16             0.00028386517  0.00057560385 -381513.2       0.0013880388   4.8541312      27.91351       3888.3214      0.0097508293  -8.0935244     -11.913939      6.0913737e-08 -3.0927863e-07  0.0034873913 
      1610   16.1           0.0002862456   0.00057535977 -381513.2       0.0013996786   4.8541312      27.91351       3888.3214      0.0094549821  -8.0931718     -11.914554      6.0593962e-08 -3.0983506e-07  0.0034835789 
      1620   16.2           0.00028861942  0.00057505016 -381513.2       0.001411286    4.8541312      27.91351       3888.3214      0.009158045   -8.0928156     -11.915171      6.0342847e-08 -3.1134084e-07  0.0034796583 
      1630   16.3           0.00029098617  0.00057468565 -381513.2       0.001422859    4.8541312      27.91351       3888.3214      0.0088600411  -8.0924559     -11.91579       5.9156347e-08 -3.090983e-07   0.0034756318 
      1640   16.4           0.00029334541  0.00057427703 -381513.2       0.0014343951   4.8541312      27.91351       3888.3214      0.0085609926  -8.0920926     -11.916411      5.7946687e-08 -3.0690272e-07  0.0034714877 
      1650   16.5           0.0002956967   0.00057383529 -381513.2       0.0014458924   4.8541312      27.91351       3888.3214      0.0082608947  -8.0917257     -11.917034      5.6926944e-08 -3.0384027e-07  0.0034672436 
      1660   16.6           0.0002980396   0.00057337142 -381513.2       0.0014573487   4.8541312      27.91351       3888.3214      0.007959798   -8.0913553     -11.917659      5.6195549e-08 -3.0352762e-07  0.0034628881 
      1670   16.7           0.00030037371  0.00057289651 -381513.2       0.001468762    4.8541312      27.91351       3888.3214      0.0076576776  -8.0909813     -11.918287      5.5865163e-08 -3.0419114e-07  0.0034584389 
      1680   16.8           0.00030269863  0.00057242135 -381513.2       0.0014801303   4.8541312      27.91351       3888.3214      0.0073545885  -8.0906038     -11.918917      5.5152457e-08 -3.0472045e-07  0.0034538749 
      1690   16.9           0.00030501399  0.00057195675 -381513.2       0.0014914519   4.8541312      27.91351       3888.3214      0.0070505144  -8.0902228     -11.919549      5.3504324e-08 -3.0040787e-07  0.0034492257 
      1700   17             0.00030731944  0.00057151305 -381513.2       0.0015027251   4.8541312      27.91351       3888.3214      0.0067454997  -8.0898383     -11.920183      5.2332711e-08 -2.9856987e-07  0.0034444725 
      1710   17.1           0.00030961465  0.00057110028 -381513.2       0.0015139482   4.8541312      27.91351       3888.3214      0.0064395455  -8.0894502     -11.920819      5.1495951e-08 -2.9695636e-07  0.0034396267 
      1720   17.2           0.00031189931  0.00057072804 -381513.2       0.0015251196   4.8541312      27.91351       3888.3214      0.0061326699  -8.0890587     -11.921458      5.0856004e-08 -2.9685587e-07  0.0034346872 
      1730   17.3           0.00031417315  0.00057040521 -381513.2       0.0015362382   4.8541312      27.91351       3888.3214      0.0058248997  -8.0886637     -11.922098      5.0725876e-08 -2.9868658e-07  0.0034296578 
      1740   17.4           0.0003164359   0.00057014012 -381513.2       0.0015473026   4.8541312      27.91351       3888.3214      0.0055162262  -8.0882652     -11.922741      4.909701e-08  -2.9513988e-07  0.0034245464 
      1750   17.5           0.00031868737  0.0005699403  -381513.2       0.0015583118   4.8541312      27.91351       3888.3214      0.0052066924  -8.0878633     -11.923386      4.7258497e-08 -2.9184797e-07  0.0034193433 
      1760   17.6           0.00032092735  0.00056981234 -381513.2       0.0015692648   4.8541312      27.91351       3888.3214      0.0048962957  -8.0874579     -11.924033      4.685252e-08  -2.9082599e-07  0.0034140616 
      1770   17.7           0.00032315569  0.0005697621  -381513.2       0.0015801609   4.8541312      27.91351       3888.3214      0.00458505    -8.0870492     -11.924682      4.5548731e-08 -2.8844548e-07  0.0034087021 
      1780   17.8           0.00032537226  0.00056979418 -381513.2       0.0015909994   4.8541312      27.91351       3888.3214      0.0042729832  -8.086637      -11.925334      4.5673814e-08 -2.9153193e-07  0.00340326   
      1790   17.9           0.00032757698  0.00056991231 -381513.2       0.00160178     4.8541312      27.91351       3888.3214      0.0039600757  -8.0862216     -11.925987      4.4371115e-08 -2.8912272e-07  0.0033977508 
      1800   18             0.00032976979  0.00057011895 -381513.2       0.0016125024   4.8541312      27.91351       3888.3214      0.0036463752  -8.0858028     -11.926643      4.2382829e-08 -2.8570384e-07  0.0033921673 
      1810   18.1           0.00033195067  0.00057041544 -381513.2       0.0016231664   4.8541312      27.91351       3888.3214      0.0033318652  -8.0853806     -11.927301      4.1831392e-08 -2.8373865e-07  0.0033865176 
      1820   18.2           0.00033411964  0.00057080189 -381513.2       0.0016337722   4.8541312      27.91351       3888.3214      0.0030165675  -8.0849552     -11.927961      4.01879e-08   -2.8152252e-07  0.0033808005 
      1830   18.3           0.00033627673  0.00057127714 -381513.2       0.0016443199   4.8541312      27.91351       3888.3214      0.0027004912  -8.0845266     -11.928623      4.0416822e-08 -2.8311461e-07  0.0033750205 
      1840   18.4           0.00033842203  0.00057183878 -381513.2       0.00165481     4.8541312      27.91351       3888.3214      0.0023836255  -8.0840948     -11.929287      3.9513227e-08 -2.8308405e-07  0.0033691852 
      1850   18.5           0.00034055566  0.00057248314 -381513.2       0.0016652429   4.8541312      27.91351       3888.3214      0.0020660054  -8.0836598     -11.929954      3.7785081e-08 -2.7952789e-07  0.0033632913 
      1860   18.6           0.00034267775  0.00057320526 -381513.2       0.0016756195   4.8541312      27.91351       3888.3214      0.0017476015  -8.0832217     -11.930622      3.6298069e-08 -2.7593537e-07  0.0033573482 
      1870   18.7           0.00034478847  0.000573999   -381513.2       0.0016859405   4.8541312      27.91351       3888.3214      0.0014284616  -8.0827804     -11.931293      3.5602476e-08 -2.7507907e-07  0.0033513473 
      1880   18.8           0.00034688802  0.00057485697 -381513.2       0.0016962068   4.8541312      27.91351       3888.3214      0.0011085437  -8.0823361     -11.931967      3.4864455e-08 -2.742453e-07   0.0033453112 
      1890   18.9           0.00034897663  0.00057577065 -381513.2       0.0017064196   4.8541312      27.91351       3888.3214      0.00078789173 -8.0818889     -11.932642      3.4289267e-08 -2.7593219e-07  0.0033392175 
      1900   19             0.00035105452  0.00057673039 -381513.2       0.0017165801   4.8541312      27.91351       3888.3214      0.00046646964 -8.0814386     -11.93332       3.325673e-08  -2.7303511e-07  0.0033330952 
      1910   19.1           0.00035312197  0.00057772554 -381513.2       0.0017266895   4.8541312      27.91351       3888.3214      0.00014431403 -8.0809854     -11.933999      3.1089092e-08 -2.6867016e-07  0.0033269323 
      1920   19.2           0.00035517924  0.00057874443 -381513.2       0.0017367491   4.8541312      27.91351       3888.3214     -0.00017859204 -8.0805293     -11.934682      3.06407e-08   -2.67644e-07    0.0033207335 
      1930   19.3           0.00035722662  0.0005797746  -381513.2       0.0017467603   4.8541312      27.91351       3888.3214     -0.00050223959 -8.0800704     -11.935366      2.9707174e-08 -2.6674425e-07  0.0033145007 
      1940   19.4           0.00035926441  0.00058080267 -381513.2       0.0017567246   4.8541312      27.91351       3888.3214     -0.00082663323 -8.0796087     -11.936053      2.9281486e-08 -2.6708142e-07  0.0033082432 
      1950   19.5           0.00036129288  0.00058181466 -381513.2       0.0017666434   4.8541312      27.91351       3888.3214     -0.0011517613  -8.0791443     -11.936741      2.8685886e-08 -2.6742827e-07  0.0033019594 
      1960   19.6           0.00036331234  0.00058279591 -381513.2       0.0017765182   4.8541312      27.91351       3888.3214     -0.0014776404  -8.0786771     -11.937433      2.6252273e-08 -2.6117085e-07  0.0032956559 
      1970   19.7           0.00036532307  0.00058373127 -381513.2       0.0017863502   4.8541312      27.91351       3888.3214     -0.0018042319  -8.0782074     -11.938126      2.5649042e-08 -2.6007395e-07  0.0032893232 
      1980   19.8           0.00036732534  0.00058460517 -381513.2       0.0017961409   4.8541312      27.91351       3888.3214     -0.0021315746  -8.077735      -11.938822      2.5258836e-08 -2.5899226e-07  0.0032829858 
      1990   19.9           0.00036931941  0.00058540176 -381513.2       0.0018058914   4.8541312      27.91351       3888.3214     -0.0024596231  -8.07726       -11.93952       2.4414255e-08 -2.5927135e-07  0.0032766198 
      2000   20             0.00037130551  0.00058610494 -381513.2       0.001815603    4.8541312      27.91351       3888.3214     -0.00278841    -8.0767826     -11.94022       2.4082694e-08 -2.6033231e-07  0.0032702552 
Loop time of 1471.76 on 2 procs for 2000 steps with 37830 atoms

96.2% CPU use with 1 MPI tasks x 2 OpenMP threads

Minimization stats:
  Stopping criterion = max iterations
  Energy initial, next-to-last, final = 
     -381511.701258323  -381513.196387512  -381513.196388474
  Force two-norm initial, final = 5.3224357 0.00058610494
  Force max component initial, final = 0.84653204 6.9622672e-06
  Final line search alpha, max atom move = 0 0
  Iterations, force evaluations = 2000 2002

MPI task timing breakdown:
Section |  min time  |  avg time  |  max time  |%varavg| %total
---------------------------------------------------------------
Pair    | 1464.7     | 1464.7     | 1464.7     |   0.0 | 99.52
Neigh   | 0          | 0          | 0          |   0.0 |  0.00
Comm    | 4.9608     | 4.9608     | 4.9608     |   0.0 |  0.34
Output  | 0.066761   | 0.066761   | 0.066761   |   0.0 |  0.00
Modify  | 0          | 0          | 0          |   0.0 |  0.00
Other   |            | 1.985      |            |       |  0.13

Nlocal:          37830 ave       37830 max       37830 min
Histogram: 1 0 0 0 0 0 0 0 0 0
Nghost:         214771 ave      214771 max      214771 min
Histogram: 1 0 0 0 0 0 0 0 0 0
Neighs:              0 ave           0 max           0 min
Histogram: 1 0 0 0 0 0 0 0 0 0
FullNghs:  4.64461e+06 ave 4.64461e+06 max 4.64461e+06 min
Histogram: 1 0 0 0 0 0 0 0 0 0

Total # of neighbors = 4644612
Ave neighs/atom = 122.77589
Neighbor list builds = 0
Dangerous builds = 0
Switching to 'neigh_modify every 1 delay 0 check yes' setting during minimization
Setting up cg style minimization ...
  Unit style    : metal
  Current step  : 2000
WARNING: Energy due to 3 extra global DOFs will be included in minimizer energies
 (src/min.cpp:219)
Per MPI rank memory allocation (min/avg/max) = 95.83 | 95.83 | 95.83 Mbytes
   Step          Time           Temp          Fnorm          PotEng         KinEng           Lx             Ly             Lz            Pxx            Pyy            Pzz            Pxy            Pxz            Pyz      
      2000   2              0.00037130551  0.00058610494 -381513.2       0.001815603    4.8541312      27.91351       3888.3214     -0.0027884105  -8.0767826     -11.94022       2.4101315e-08 -2.6038598e-07  0.0032702555 
      2010   2.01           0.00037130551  0.0013509317  -381513.2       0.001815603    4.8541312      27.91351       3888.3054      6.2961228     -2.1151005     -0.099860686    2.2604841e-08 -2.5850138e-07  0.0032703053 
      2020   2.02           0.00037130551  0.00083530416 -381513.2       0.001815603    4.8541312      27.91351       3888.3053      6.3714532     -2.0737602      0.0095314812   2.3408399e-08 -2.5696331e-07  0.0032703044 
      2030   2.03           0.00037130551  0.0017600872  -381513.2       0.001815603    4.8541312      27.91351       3888.3054      6.3479587     -2.0833276      0.011486161    2.4042567e-08 -2.5892866e-07  0.0032703049 
      2040   2.04           0.00037130551  0.00092433157 -381513.2       0.001815603    4.8541312      27.91351       3888.3053      6.3975032     -2.0617535      0.082382212    2.3472042e-08 -2.5766487e-07  0.0032702937 
      2050   2.05           0.00037130551  0.0013155455  -381513.2       0.001815603    4.8541312      27.91351       3888.3052      6.3837508     -2.0401763      0.0073207565   2.3000144e-08 -2.5568059e-07  0.0032702872 
      2060   2.06           0.00037130551  0.0014293686  -381513.2       0.001815603    4.8541312      27.91351       3888.3053      6.383934      -2.045532      -0.0020056688   2.3355009e-08 -2.5613675e-07  0.003270287  
      2070   2.07           0.00037130551  0.0016574592  -381513.2       0.001815603    4.8541312      27.91351       3888.3053      6.4015959     -2.0416803      0.012753682    2.3612439e-08 -2.5570753e-07  0.0032702854 
      2080   2.08           0.00037130551  0.00066501003 -381513.2       0.001815603    4.8541312      27.91351       3888.3053      6.3477916     -2.0991798     -0.0088657971   2.3182142e-08 -2.5713886e-07  0.003270283  
      2090   2.09           0.00037130551  0.0042220918  -381513.2       0.001815603    4.8541312      27.91351       3888.3054      6.6240593     -2.0496727      0.0049667355   2.6495436e-08 -2.5359882e-07  0.0032702275 
      2100   2.1            0.00037130551  0.0052792669  -381513.2       0.001815603    4.8541312      27.91351       3888.3054      6.6856185     -2.0432021     -0.00029626205  2.7547058e-08 -2.5261738e-07  0.0032702141 
      2110   2.11           0.00037130551  0.0068338977  -381513.2       0.001815603    4.8541312      27.91351       3888.3059      6.6198355     -2.1949138     -0.32504231     3.0070895e-08 -2.5198456e-07  0.0032701843 
      2120   2.12           0.00037130551  0.0019013978  -381513.2       0.001815603    4.8541312      27.91351       3888.3055      6.3870941     -2.1280874      0.0075310524   2.7476066e-08 -2.5907565e-07  0.0032701271 
      2130   2.13           0.00037130551  0.0013271138  -381513.2       0.001815603    4.8541312      27.91351       3888.3054      6.3537555     -2.0995141     -0.0280234      2.3154101e-08 -2.5724607e-07  0.0032701145 
      2140   2.14           0.00037130551  0.001157232   -381513.2       0.001815603    4.8541312      27.91351       3888.3053      6.3865818     -2.0636709      0.034411644    2.3486227e-08 -2.5740363e-07  0.0032701124 
      2150   2.15           0.00037130551  0.00068674416 -381513.2       0.001815603    4.8541312      27.91351       3888.3053      6.3669984     -2.0808096      0.0082284241   2.3004358e-08 -2.5706075e-07  0.003270108  
      2160   2.16           0.00037130551  0.0008200922  -381513.2       0.001815603    4.8541312      27.91351       3888.3053      6.3697648     -2.0781963      0.0097557364   2.3078501e-08 -2.5730824e-07  0.0032701031 
      2170   2.17           0.00037130551  0.00057405757 -381513.2       0.001815603    4.8541312      27.91351       3888.3053      6.3601831     -2.089204       0.0085477748   2.3052009e-08 -2.5728643e-07  0.0032700996 
      2180   2.18           0.00037130551  0.00069514126 -381513.2       0.001815603    4.8541312      27.91351       3888.3053      6.3899997     -2.0591588      0.052007073    2.3229494e-08 -2.5766037e-07  0.0032700979 
      2190   2.19           0.00037130551  0.00095952535 -381513.2       0.001815603    4.8541312      27.91351       3888.3054      6.3295188     -2.1196413     -0.040364468    2.2962598e-08 -2.5705332e-07  0.003270094  
      2200   2.2            0.00037130551  0.0006216734  -381513.2       0.001815603    4.8541312      27.91351       3888.3053      6.3679251     -2.0805024      0.011554928    2.3183924e-08 -2.5719862e-07  0.0032700914 
      2210   2.21           0.00037130551  0.00066988537 -381513.2       0.001815603    4.8541312      27.91351       3888.3053      6.3686486     -2.0796506      0.011477578    2.3260167e-08 -2.574206e-07   0.0032700908 
      2220   2.22           0.00037130551  0.00073262272 -381513.2       0.001815603    4.8541312      27.91351       3888.3053      6.3694833     -2.0786656      0.011369345    2.3489036e-08 -2.5795452e-07  0.0032700903 
      2230   2.23           0.00037130551  0.00081898379 -381513.2       0.001815603    4.8541312      27.91351       3888.3053      6.3705075     -2.0774517      0.011185291    2.339591e-08  -2.5759139e-07  0.0032700913 
      2240   2.24           0.00037130551  0.00096408347 -381513.2       0.001815603    4.8541312      27.91351       3888.3053      6.3720034     -2.0756582      0.010729752    2.349578e-08  -2.5764618e-07  0.0032700921 
      2250   2.25           0.00037130551  0.010078786   -381513.2       0.001815603    4.8541312      27.91351       3888.3051      6.2399552     -2.2243277     -0.038287789    1.2294606e-08 -2.2531997e-07  0.003269934  
      2260   2.26           0.00037130551  0.011497662   -381513.2       0.001815603    4.8541312      27.91351       3888.3051      6.2067353     -2.2590144     -0.07556751     1.0466814e-08 -2.2036132e-07  0.0032699098 
      2270   2.27           0.00037130551  0.015168647   -381513.2       0.001815603    4.8541312      27.91351       3888.3059      5.838485      -2.6186867     -0.71723828     4.407014e-09  -2.0768934e-07  0.0032698271 
      2280   2.28           0.00037130551  0.00051173531 -381513.2       0.001815603    4.8541312      27.91351       3888.3053      6.3651968     -2.0836421      0.0107676     -3.7043176e-09 -2.3120421e-07  0.0032698132 
      2290   2.29           0.00037130551  0.00060721682 -381513.2       0.001815603    4.8541312      27.91351       3888.3053      6.3673163     -2.0811442      0.010531519   -3.0640356e-09 -2.3371507e-07  0.0032698065 
      2300   2.3            0.00037130551  0.00094763387 -381513.2       0.001815603    4.8541312      27.91351       3888.3053      6.371681      -2.0760265      0.010308868    4.8062438e-10 -2.4705208e-07  0.0032697677 
      2310   2.31           0.00037130551  0.0043336928  -381513.2       0.001815603    4.8541312      27.91351       3888.3054      6.4072295     -2.0330084      1.2313848e-05 -2.963615e-06   1.0394101e-05  0.0033179297 
      2320   2.32           0.00037130551  0.0007220921  -381513.2       0.001815603    4.8541312      27.91351       3888.3053      6.3487504     -2.101738       0.012911889    2.4398356e-05 -2.1949637e-05  0.0029724076 
      2330   2.33           0.00037130551  0.0012141191  -381513.2       0.001815603    4.8541312      27.91351       3888.3054      6.3697561     -2.0780406      0.0082427353  -3.2001336e-06  5.3338548e-06  0.0032284732 
      2340   2.34           0.00037130551  0.0005744663  -381513.2       0.001815603    4.8541312      27.91351       3888.3053      6.359814      -2.0894112      0.010243505    1.074718e-06  -1.9404982e-06  0.0032821713 
      2350   2.35           0.00037130551  0.0022189397  -381513.2       0.001815603    4.8541312      27.91351       3888.3054      6.3828098     -2.061886       0.0035511859  -9.8583466e-06  1.6195157e-05  0.0031528404 
      2360   2.36           0.00037130551  0.0024690534  -381513.2       0.001815603    4.8541312      27.91351       3888.3054      6.384032      -2.0601299      0.00052083981 -1.1049055e-05  1.8162755e-05  0.0031387673 
      2370   2.37           0.00037130551  0.0027644443  -381513.2       0.001815603    4.8541312      27.91351       3888.3054      6.3847142     -2.0587754     -0.0045759842  -1.2544803e-05  2.0629185e-05  0.0031210969 
      2380   2.38           0.00037130551  0.0031776833  -381513.2       0.001815603    4.8541312      27.91351       3888.3054      6.3825817     -2.0598145     -0.017773403   -1.4806943e-05  2.4350469e-05  0.0030943869 
      2390   2.39           0.00037130551  0.0041873747  -381513.2       0.001815603    4.8541312      27.91351       3888.3049      6.6193268     -1.8308337      0.41619433    -2.1656136e-05  3.5545993e-05  0.0030136155 
      2400   2.4            0.00037130551  0.00079517427 -381513.2       0.001815603    4.8541312      27.91351       3888.3055      6.3039111     -2.1410653     -0.11507837    -8.2867233e-06  1.3666685e-05  0.0031808511 
      2410   2.41           0.00037130551  0.00056325049 -381513.2       0.001815603    4.8541312      27.91351       3888.3053      6.3692952     -2.0788406      0.016820387    4.1958367e-06 -7.0435269e-06  0.003313478  
      2420   2.42           0.00037130551  0.00086350731 -381513.2       0.001815603    4.8541312      27.91351       3888.3058      6.1682885     -2.2730352     -0.3543952     -6.8958045e-06  1.193473e-05   0.0031901592 
      2430   2.43           0.00037130551  0.0035040804  -381513.2       0.001815603    4.8541312      27.91351       3888.3051      6.3692636     -2.085129       0.084480646    5.0297729e-05 -8.2335347e-05  0.003803753  
      2440   2.44           0.00037130551  0.00075906065 -381513.2       0.001815603    4.8541312      27.91351       3888.3053      6.3696571     -2.0781142      0.011064932   -2.0633643e-05  2.8775888e-05  0.0030809419 
      2450   2.45           0.00037130551  0.00074065512 -381513.2       0.001815603    4.8541312      27.91351       3888.3053      6.3523666     -2.0964681     -0.0016519369   5.4505605e-06 -6.9418678e-06  0.0033136071 
      2460   2.46           0.00037130551  0.0013525307  -381513.2       0.001815603    4.8541312      27.91351       3888.3052      6.3954334     -2.0566832      0.086813666   -3.7276962e-05  6.8626026e-05  0.0028192248 
      2470   2.47           0.00037130551  0.00090348744 -381513.2       0.001815603    4.8541312      27.91351       3888.3053      6.3710614     -2.0761813      0.010502752   -6.0231091e-06  6.6221719e-06  0.0032234905 
      2480   2.48           0.00037130551  0.00092667509 -381513.2       0.001815603    4.8541312      27.91351       3888.3053      6.3558465     -2.0934451      0.0091796029   1.0829938e-05 -1.7366753e-05  0.0033822935 
      2490   2.49           0.00037130551  0.00055075936 -381513.2       0.001815603    4.8541312      27.91351       3888.3053      6.3632598     -2.0852808      0.011579033   -8.6784355e-06  7.0399553e-06  0.0032181834 
      2500   2.5            0.00037130551  0.0022000641  -381513.2       0.001815603    4.8541312      27.91351       3888.3054      6.381728      -2.0640625      0.0094647936  -2.7227088e-05  3.1016355e-05  0.0030522835 
      2510   2.51           0.00037130551  0.0061580909  -381513.2       0.001815603    4.8541312      27.91351       3888.3006      8.2045361     -0.32010466     3.570053       0.00026317131 -0.00048885357  0.0061078998 
      2520   2.52           0.00037130551  0.01125585    -381513.2       0.001815603    4.8541312      27.91351       3888.3052      6.3684445     -2.0745457      0.04605811     0.00044652637 -0.00084156531  0.0081349503 
      2530   2.53           0.00037130551  0.01268067    -381513.2       0.001815603    4.8541312      27.91351       3888.3053      6.3553249     -2.0866129      0.025786076    0.00049999587 -0.00094252571  0.0087177774 
      2540   2.54           0.00037130551  0.00078779589 -381513.2       0.001815603    4.8541312      27.91351       3888.3053      6.3609933     -2.0854437      0.007805522    9.5227816e-05 -0.00012382851  0.0040698431 
      2550   2.55           0.00037130551  0.00073133517 -381513.2       0.001815603    4.8541312      27.91351       3888.3054      6.3468044     -2.0999884     -0.024847967   -1.6031027e-07 -3.2725983e-07  0.0032687364 
      2560   2.56           0.00037130551  0.00091923525 -381513.2       0.001815603    4.8541312      27.91351       3888.3053      6.3633361     -2.0841375      0.0061409665   3.7540736e-07 -1.3975987e-06  0.0032753492 
      2570   2.57           0.00037130551  0.0010182287  -381513.2       0.001815603    4.8541312      27.91351       3888.3053      6.3634109     -2.0840462      0.0058420514   6.7725615e-07 -1.9932612e-06  0.0032790314 
      2580   2.58           0.00037130551  0.001130213   -381513.2       0.001815603    4.8541312      27.91351       3888.3053      6.3634613     -2.0839758      0.0054519439   1.0413356e-06 -2.7058709e-06  0.0032834419 
      2590   2.59           0.00037130551  0.0012569111  -381513.2       0.001815603    4.8541312      27.91351       3888.3053      6.3634932     -2.0839204      0.0049740587   1.4827152e-06 -3.5637101e-06  0.0032887539 
      2600   2.6            0.00037130551  0.0014002028  -381513.2       0.001815603    4.8541312      27.91351       3888.3053      6.36351       -2.0838762      0.0044067923   2.0196694e-06 -4.6002436e-06  0.0032951796 
      2610   2.61           0.00037130551  0.0015621743  -381513.2       0.001815603    4.8541312      27.91351       3888.3053      6.3635137     -2.0838406      0.0037452098   2.6749209e-06 -5.8570859e-06  0.003302975  
      2620   2.62           0.00037130551  0.0017451624  -381513.2       0.001815603    4.8541312      27.91351       3888.3053      6.3635054     -2.0838121      0.0029813009   3.4766982e-06 -7.3850611e-06  0.0033124559 
      2630   2.63           0.00037130551  0.0019518002  -381513.2       0.001815603    4.8541312      27.91351       3888.3053      6.3634824     -2.0837923      0.0020993317   4.4590442e-06 -9.2473528e-06  0.0033240094 
      2640   2.64           0.00037130551  0.0021856096  -381513.2       0.001815603    4.8541312      27.91351       3888.3053      6.3633618     -2.0838595      0.00092505999  5.6674774e-06 -1.1526215e-05  0.0033381493 
      2650   2.65           0.00037130551  0.0024525113  -381513.2       0.001815603    4.8541312      27.91351       3888.3053      6.3631175     -2.0840372     -0.00061573408  7.1703528e-06 -1.4344204e-05  0.0033556475 
      2660   2.66           0.00037130551  0.0027584638  -381513.2       0.001815603    4.8541312      27.91351       3888.3054      6.3628827     -2.084196      -0.002289567    9.0513144e-06 -1.7853414e-05  0.0033774427 
      2670   2.67           0.00037130551  0.0031075104  -381513.2       0.001815603    4.8541312      27.91351       3888.3054      6.362678      -2.084315      -0.0040728237   1.1399194e-05 -2.2211309e-05  0.0034045175 
      2680   2.68           0.00037130551  0.0035042155  -381513.2       0.001815603    4.8541312      27.91351       3888.3054      6.3624813     -2.0844133     -0.0060257317   1.4322296e-05 -2.7609986e-05  0.0034380719 
      2690   2.69           0.00037130551  0.0039541145  -381513.2       0.001815603    4.8541312      27.91351       3888.3054      6.3622756     -2.084505      -0.0082022427   1.7957618e-05 -3.4292423e-05  0.0034796096 
      2700   2.7            0.00037130551  0.0044637452  -381513.2       0.001815603    4.8541312      27.91351       3888.3054      6.3620477     -2.0846        -0.010653029    2.247588e-05  -4.2558894e-05  0.0035310104 
      2710   2.71           0.00037130551  0.0050406918  -381513.2       0.001815603    4.8541312      27.91351       3888.3054      6.3617856     -2.0847065     -0.013429509    2.8091652e-05 -5.2787053e-05  0.0035946175 
      2720   2.72           0.00037130551  0.0056936682  -381513.2       0.001815603    4.8541312      27.91351       3888.3054      6.3614772     -2.084832      -0.016587401    3.5073227e-05 -6.5446279e-05  0.0036733569 
      2730   2.73           0.00037130551  0.0064326404  -381513.2       0.001815603    4.8541312      27.91351       3888.3054      6.3611083     -2.0849854     -0.020190058    4.375471e-05  -8.1120784e-05  0.0037708664 
      2740   2.74           0.00037130551  0.0072689893  -381513.2       0.001815603    4.8541312      27.91351       3888.3054      6.3606614     -2.0851775     -0.024311874    5.4556203e-05 -0.00010053985  0.0038916901 
      2750   2.75           0.00037130551  0.0082157178  -381513.2       0.001815603    4.8541312      27.91351       3888.3054      6.3601134     -2.0854234     -0.029042322    6.8003005e-05 -0.00012461491  0.004041505  
      2760   2.76           0.00037130551  0.0092877107  -381513.2       0.001815603    4.8541312      27.91351       3888.3054      6.3594328     -2.0857443     -0.034491472    8.4756455e-05 -0.00015448833  0.0042274235 
      2770   2.77           0.00037130551  0.00061724579 -381513.2       0.001815603    4.8541312      27.91351       3888.3053      6.3606445     -2.0863099      0.0054173528   5.7143737e-05 -9.5767452e-05  0.0038635254 
      2780   2.78           0.00037130551  0.0018765174  -381513.2       0.001815603    4.8541312      27.91351       3888.3055      6.3113137     -2.1325004     -0.10301169    -2.1883562e-05  7.2538651e-05  0.0028610478 
      2790   2.79           0.00037130551  0.00060194144 -381513.2       0.001815603    4.8541312      27.91351       3888.3053      6.3627424     -2.0850648      0.010223168    1.8594829e-06 -3.0097445e-06  0.0032839305 
      2800   2.8            0.00037130551  0.00055245208 -381513.2       0.001815603    4.8541312      27.91351       3888.3053      6.3647067     -2.0831652      0.016320279    2.565804e-06   1.076756e-05   0.0032070662 
      2810   2.81           0.00037130551  0.00080278471 -381513.2       0.001815603    4.8541312      27.91351       3888.3053      6.3639722     -2.0831386      0.012386608    1.2441545e-05  2.5263187e-05  0.0031500424 
      2820   2.82           0.00037130551  0.00069523164 -381513.2       0.001815603    4.8541312      27.91351       3888.3053      6.3694405     -2.0769949      0.0096931424  -4.4999495e-07 -9.3320482e-07  0.0032721075 
      2830   2.83           0.00037130551  0.0021318959  -381513.2       0.001815603    4.8541312      27.91351       3888.3054      6.3821053     -2.06296        0.01064106    -6.4943046e-06 -1.1292822e-05  0.003333042  
      2840   2.84           0.00037130551  0.0038229149  -381513.2       0.001815603    4.8541312      27.91351       3888.3053      6.3100681     -2.1464029     -0.0010727495  -8.2917779e-06 -1.6378758e-05  0.0033514677 
      2850   2.85           0.00037130551  0.00077946398 -381513.2       0.001815603    4.8541312      27.91351       3888.3054      6.3240679     -2.1325827      0.0085740497  -4.6880858e-07 -1.9804779e-06  0.0032819421 
      2860   2.86           0.00037130551  0.00067191421 -381513.2       0.001815603    4.8541312      27.91351       3888.3053      6.3819948     -2.0588571     -0.0032510463  -1.5131776e-06 -1.2244618e-06  0.0032843269 
      2870   2.87           0.00037130551  0.00050503676 -381513.2       0.001815603    4.8541312      27.91351       3888.3053      6.3624447     -2.0844397      0.0084132191   4.9743332e-07 -2.0107797e-07  0.0032471013 
      2880   2.88           0.00037130551  0.00053383995 -381513.2       0.001815603    4.8541312      27.91351       3888.3053      6.3639265     -2.083803       0.010024918   -1.1490223e-06 -1.1897638e-06  0.0032954388 
      2890   2.89           0.00037130551  0.0018220792  -381513.2       0.001815603    4.8541312      27.91351       3888.3054      6.3456283     -2.0975657     -0.021328815    7.4452472e-06  5.3495987e-06  0.0030718248 
      2900   2.9            0.00037130551  0.0004924517  -381513.2       0.001815603    4.8541312      27.91351       3888.3053      6.3625386     -2.0847205      0.0061390282   1.3917996e-06  1.6762844e-06  0.0032842897 
      2910   2.91           0.00037130551  0.00085631788 -381513.2       0.001815603    4.8541312      27.91351       3888.3053      6.3727924     -2.0749574      0.02766904     1.9814216e-06  2.6685648e-06  0.0032570886 
      2920   2.92           0.00037130551  0.00074250481 -381513.2       0.001815603    4.8541312      27.91351       3888.3053      6.3741189     -2.0735522      0.030171955    2.631509e-07   1.3898822e-08  0.0032626554 
      2930   2.93           0.00037130551  0.0012910465  -381513.2       0.001815603    4.8541312      27.91351       3888.3053      6.3693912     -2.0782461      0.021091661    2.4531848e-06  3.247946e-06   0.0032550105 
      2940   2.94           0.00037130551  0.005394487   -381513.2       0.001815603    4.8541312      27.91351       3888.3092      4.856083      -3.5328927     -2.9072999      0.00010507092  0.00016018899  0.0030995295 
      2950   2.95           0.00037130551  0.00080887114 -381513.2       0.001815603    4.8541312      27.91351       3888.3053      6.3650864     -2.0815035      0.010285115   -7.0477279e-07 -1.8086933e-06  0.0032551961 
      2960   2.96           0.00037130551  0.0011288877  -381513.2       0.001815603    4.8541312      27.91351       3888.3054      6.3294516     -2.1276327      0.0089132554   2.3950519e-05  4.89098e-05    0.0031914913 
      2970   2.97           0.00037130551  0.0006191596  -381513.2       0.001815603    4.8541312      27.91351       3888.3053      6.3492997     -2.101583       0.013191696    1.3553633e-06  1.8273434e-06  0.0032544969 
      2980   2.98           0.00037130551  0.0013477253  -381513.2       0.001815603    4.8541312      27.91351       3888.3053      6.3722554     -2.0725144      0.0096070428   1.7918147e-06  4.775758e-06   0.0032701855 
      2990   2.99           0.00037130551  0.0014611116  -381513.2       0.001815603    4.8541312      27.91351       3888.3052      6.4339089     -1.9997389      0.037970896   -2.500756e-06  -2.4104191e-06  0.003255715  
      2991   2.991          0.00037130551  0.0014709656  -381513.2       0.001815603    4.8541312      27.91351       3888.3052      6.4189502     -2.01407        0.0092635332  -2.4655148e-06 -2.333642e-06   0.0032552678 
Loop time of 1623.2 on 2 procs for 991 steps with 37830 atoms

96.3% CPU use with 1 MPI tasks x 2 OpenMP threads

Minimization stats:
  Stopping criterion = max force evaluations
  Energy initial, next-to-last, final = 
     -381513.196388473  -381513.196439186  -381513.196439189
  Force two-norm initial, final = 3.9296798 0.0014962183
  Force max component initial, final = 3.9296797 0.00027373267
  Final line search alpha, max atom move = 0.11823271 3.2364154e-05
  Iterations, force evaluations = 991 2001

MPI task timing breakdown:
Section |  min time  |  avg time  |  max time  |%varavg| %total
---------------------------------------------------------------
Pair    | 1468.9     | 1468.9     | 1468.9     |   0.0 | 90.49
Neigh   | 136.47     | 136.47     | 136.47     |   0.0 |  8.41
Comm    | 9.3666     | 9.3666     | 9.3666     |   0.0 |  0.58
Output  | 0.022866   | 0.022866   | 0.022866   |   0.0 |  0.00
Modify  | 0          | 0          | 0          |   0.0 |  0.00
Other   |            | 8.455      |            |       |  0.52

Nlocal:          37830 ave       37830 max       37830 min
Histogram: 1 0 0 0 0 0 0 0 0 0
Nghost:         214816 ave      214816 max      214816 min
Histogram: 1 0 0 0 0 0 0 0 0 0
Neighs:              0 ave           0 max           0 min
Histogram: 1 0 0 0 0 0 0 0 0 0
FullNghs:  4.64465e+06 ave 4.64465e+06 max 4.64465e+06 min
Histogram: 1 0 0 0 0 0 0 0 0 0

Total # of neighbors = 4644654
Ave neighs/atom = 122.777
Neighbor list builds = 1424
Dangerous builds = 1166
Switching to 'neigh_modify every 1 delay 0 check yes' setting during minimization
Setting up fire style minimization ...
  Unit style    : metal
  Current step  : 2991
  Parameters for fire:
    dmax  delaystep dtgrow dtshrink alpha0 alphashrink tmax tmin   integrator   halfstepback   abcfire  
     0.1     20      1.1     0.5     0.25     0.99      10  0.02 eulerimplicit      yes          no     
Per MPI rank memory allocation (min/avg/max) = 77.83 | 77.83 | 77.83 Mbytes
   Step          Time           Temp          Fnorm          PotEng         KinEng           Lx             Ly             Lz            Pxx            Pyy            Pzz            Pxy            Pxz            Pyz      
      2991   2.991          0              0.0014709656  -381513.2       0              4.8541312      27.91351       3888.3052      6.4189502     -2.0150167     -0.00083243236 -2.3979567e-06 -2.1804133e-06  0.0012135055 
      3000   3              1.1308857e-09  0.0014119004  -381513.2       5.5297848e-09  4.8541312      27.91351       3888.3052      6.4186841     -2.0153619     -0.00027606444 -2.3866653e-06 -2.0713347e-06  0.0012148354 
      3010   3.01           4.7305486e-09  0.0012407936  -381513.2       2.3131351e-08  4.8541312      27.91351       3888.3052      6.4178438     -2.0165466      0.0015623135  -2.2772296e-06 -1.7740207e-06  0.0012184633 
      3020   6.4736382      1.1888301e-08  0.00098187702 -381513.2       5.81312e-08    4.8541312      27.91351       3888.3052      6.4154684     -2.0199535      0.0069867823  -1.9424679e-06 -1.1338787e-06  0.0012248891 
      3030   16.846549      3.7805369e-08  0.00068007917 -381513.2       1.8486001e-07  4.8541312      27.91351       3888.3052      6.4046003     -2.036006       0.033918603   -7.9729602e-07 -2.2587777e-07  0.001225017  
      3040   30.4           7.8563136e-08  0.00047429236 -381513.2       3.8415661e-07  4.8541312      27.91351       3888.3052      6.392822      -2.0601145      0.0691944      3.4639118e-07 -4.7329876e-08  0.0012231129 
      3050   30.5           1.6484546e-07  0.00045738475 -381513.2       8.0605837e-07  4.8541312      27.91351       3888.3052      6.3962742     -2.0529824      0.058821521    3.7753357e-08 -1.3106324e-07  0.0012243163 
      3060   30.6           3.0333598e-07  0.00045549909 -381513.2       1.4832468e-06  4.8541312      27.91351       3888.3052      6.3961246     -2.0530797      0.058956961    6.5057053e-08 -8.6257638e-08  0.001224054  
      3070   30.7           4.8807274e-07  0.00045405778 -381513.2       2.3865693e-06  4.8541312      27.91351       3888.3052      6.395663      -2.0538944      0.060219397    1.0038862e-07 -1.0043547e-07  0.0012237835 
      3080   30.8           7.2326884e-07  0.00045240066 -381513.2       3.536627e-06   4.8541312      27.91351       3888.3052      6.3956655     -2.0537876      0.060042377    9.7333919e-08 -1.0586972e-07  0.0012238441 
      3090   30.9           1.0090714e-06  0.00045067225 -381513.2       4.9341391e-06  4.8541312      27.91351       3888.3052      6.3957204     -2.0536065      0.059756768    8.7361708e-08 -1.0515022e-07  0.0012237869 
      3100   31             1.3460085e-06  0.0004486816  -381513.2       6.5816884e-06  4.8541312      27.91351       3888.3052      6.395709      -2.0535154      0.059612606    8.4737346e-08 -1.0442976e-07  0.0012236875 
      3110   31.1           1.7352065e-06  0.00044644984 -381513.2       8.4847816e-06  4.8541312      27.91351       3888.3052      6.3956654     -2.0534733      0.059538047    8.5427471e-08 -1.0459273e-07  0.0012235664 
      3120   31.2           2.1762758e-06  0.0004439823  -381513.2       1.0641514e-05  4.8541312      27.91351       3888.3052      6.3956082     -2.0534398      0.059480612    8.6316647e-08 -1.0465405e-07  0.001223439  
      3130   31.3           2.6690894e-06  0.0004412585  -381513.2       1.3051266e-05  4.8541312      27.91351       3888.3052      6.3955518     -2.0533916      0.059398525    8.6950236e-08 -1.0494497e-07  0.001223314  
      3140   31.4           3.2132745e-06  0.00043828483 -381513.2       1.5712212e-05  4.8541312      27.91351       3888.3052      6.3954946     -2.053328       0.059292856    8.6912741e-08 -1.0484831e-07  0.0012231927 
      3150   31.5           3.8078125e-06  0.00043506585 -381513.2       1.8619373e-05  4.8541312      27.91351       3888.3052      6.3954369     -2.0532549      0.059170579    8.669418e-08  -1.0475061e-07  0.0012230746 
      3160   31.6           4.4515924e-06  0.00043160082 -381513.2       2.1767317e-05  4.8541312      27.91351       3888.3052      6.3953756     -2.0531723      0.059034391    8.6158652e-08 -1.0466294e-07  0.001222964  
      3170   31.7           5.1433223e-06  0.00042789752 -381513.2       2.5149725e-05  4.8541312      27.91351       3888.3052      6.3953097     -2.0530855      0.058890463    8.6023053e-08 -1.0494656e-07  0.0012228588 
      3180   31.8           5.881325e-06   0.00042396279 -381513.2       2.8758397e-05  4.8541312      27.91351       3888.3052      6.395238      -2.052996       0.058742181    8.5558345e-08 -1.0497738e-07  0.0012227642 
      3190   31.9           6.6638021e-06  0.00041980056 -381513.2       3.258454e-05   4.8541312      27.91351       3888.3052      6.395161      -2.0529032      0.058588441    8.5377898e-08 -1.0509363e-07  0.0012226819 
      3200   32             7.4887852e-06  0.00041542012 -381513.2       3.6618527e-05  4.8541312      27.91351       3888.3052      6.3950795     -2.052806       0.058427693    8.5012311e-08 -1.0514998e-07  0.0012226164 
      3210   32.1           8.3540562e-06  0.00041082988 -381513.2       4.0849514e-05  4.8541312      27.91351       3888.3052      6.3949948     -2.0527028      0.058257194    8.4766194e-08 -1.0527234e-07  0.0012225713 
      3220   32.2           9.2573294e-06  0.00040603697 -381513.2       4.5266323e-05  4.8541312      27.91351       3888.3052      6.3949072     -2.0525925      0.058075788    8.4112748e-08 -1.0480912e-07  0.0012225503 
      3230   32.3           1.0196156e-05  0.00040105204 -381513.2       4.9856982e-05  4.8541312      27.91351       3888.3052      6.3948161     -2.052477       0.057886111    8.3777834e-08 -1.0509462e-07  0.0012225533 
      3240   32.4           1.1167956e-05  0.00039588348 -381513.2       5.4608871e-05  4.8541312      27.91351       3888.3052      6.3947205     -2.0523584      0.057691665    8.3310279e-08 -1.0486496e-07  0.0012225832 
      3250   32.5           1.2170106e-05  0.00039054142 -381513.2       5.9509167e-05  4.8541312      27.91351       3888.3052      6.394621      -2.052236       0.057491451    8.291671e-08  -1.0513744e-07  0.0012226412 
      3260   32.6           1.3199847e-05  0.00038503649 -381513.2       6.4544374e-05  4.8541312      27.91351       3888.3052      6.3945189     -2.0521076      0.057282046    8.2581219e-08 -1.0569141e-07  0.0012227322 
[...]
     21230   212.3          3.4118832e-07  1.5624949e-05 -381513.2       1.6683365e-06  4.8541312      27.91351       3888.3051      6.3864026     -1.8665267     -0.003947316    2.9237471e-09  1.0832815e-10 -6.2733223e-09
     21240   212.4          3.4591751e-07  1.559617e-05  -381513.2       1.6914612e-06  4.8541312      27.91351       3888.3051      6.3863726     -1.8664593     -0.004025998    2.9667194e-09 -7.4977769e-11 -3.4150232e-09
     21250   212.5          3.506702e-07   1.5566766e-05 -381513.2       1.7147008e-06  4.8541312      27.91351       3888.3051      6.3863425     -1.8663914     -0.0041052258   2.6339169e-09 -3.7728425e-10 -3.6937566e-09
     21260   212.6          3.5544614e-07  1.5537513e-05 -381513.2       1.7380542e-06  4.8541312      27.91351       3888.3051      6.3863122     -1.866323      -0.0041849882   3.1273168e-09 -4.2047521e-10 -4.9785596e-09
     21270   212.7          3.6024509e-07  1.550762e-05  -381513.2       1.76152e-06    4.8541312      27.91351       3888.3051      6.3862817     -1.8662542     -0.004265277    2.1037745e-09  4.0184164e-10 -3.7296115e-09
     21280   212.8          3.6506681e-07  1.5477924e-05 -381513.2       1.7850971e-06  4.8541312      27.91351       3888.3051      6.386251      -1.866185      -0.0043461149   2.6231745e-09  1.1250143e-09 -3.2321743e-09
     21290   212.9          3.6991106e-07  1.5447575e-05 -381513.2       1.8087845e-06  4.8541312      27.91351       3888.3051      6.38622       -1.8661152     -0.0044274645   2.8352014e-09 -1.8237945e-10 -3.088566e-09 
     21300   213            3.7477759e-07  1.5417481e-05 -381513.2       1.8325807e-06  4.8541312      27.91351       3888.3051      6.3861889     -1.866045      -0.0045093639   2.6516883e-09 -2.6010739e-10 -1.8315745e-09
     21310   213.1          3.7966614e-07  1.5386662e-05 -381513.2       1.8564847e-06  4.8541312      27.91351       3888.3051      6.3861575     -1.8659744     -0.0045917792   2.8236628e-09 -9.9735422e-10 -5.4106477e-09
     21320   213.2          3.8457648e-07  1.5356119e-05 -381513.2       1.8804952e-06  4.8541312      27.91351       3888.3051      6.386126      -1.8659033     -0.004674728    2.4999645e-09  1.4077685e-10  2.4169337e-10
     21330   213.3          3.8950835e-07  1.5324864e-05 -381513.2       1.9046109e-06  4.8541312      27.91351       3888.3051      6.3860943     -1.8658317     -0.0047582074   2.3910302e-09  7.4741699e-10 -5.6545013e-09
     21340   213.4          3.944615e-07   1.5293926e-05 -381513.2       1.9288307e-06  4.8541312      27.91351       3888.3051      6.3860623     -1.8657597     -0.0048421949   2.4981969e-09  7.7793832e-10  1.5733703e-09
     21350   213.5          3.9943567e-07  1.5262259e-05 -381513.2       1.9531534e-06  4.8541312      27.91351       3888.3051      6.3860302     -1.8656873     -0.004926729    2.7499869e-09 -5.3166012e-10 -2.9901966e-09
     21360   213.6          4.0443062e-07  1.5230912e-05 -381513.2       1.9775776e-06  4.8541312      27.91351       3888.3051      6.3859978     -1.8656143     -0.0050117659   2.4118121e-09 -2.2018637e-10 -1.3687578e-09
     21370   213.7          4.0944608e-07  1.5198798e-05 -381513.2       2.0021021e-06  4.8541312      27.91351       3888.3051      6.3859653     -1.865541      -0.0050973396   2.6716688e-09 -9.9377647e-10 -2.5449744e-10
     21380   213.8          4.1448181e-07  1.5167046e-05 -381513.2       2.0267257e-06  4.8541312      27.91351       3888.3051      6.3859325     -1.8654672     -0.0051834155   2.1745618e-09  7.9829933e-10 -2.6502092e-09
     21390   213.9          4.1953753e-07  1.5134539e-05 -381513.2       2.0514471e-06  4.8541312      27.91351       3888.3051      6.3858996     -1.8653929     -0.0052700261   2.3389746e-09  5.3485754e-10  1.1796765e-09
     21400   214            4.24613e-07    1.5102416e-05 -381513.2       2.076265e-06   4.8541312      27.91351       3888.3051      6.3858665     -1.8653182     -0.0053571414   2.6792694e-09  5.6288026e-11  1.2491599e-09
     21410   214.1          4.2970795e-07  1.5069509e-05 -381513.2       2.1011782e-06  4.8541312      27.91351       3888.3051      6.3858331     -1.8652431     -0.0054447759   2.3048553e-09 -9.6778818e-11 -2.1717427e-09
     21420   214.2          4.3482211e-07  1.5036956e-05 -381513.2       2.1261854e-06  4.8541312      27.91351       3888.3051      6.3857996     -1.8651675     -0.0055329253   2.371271e-09  -6.7306773e-10  2.9503613e-09
     21430   214.3          4.3995524e-07  1.5003677e-05 -381513.2       2.1512852e-06  4.8541312      27.91351       3888.3051      6.3857659     -1.8650915     -0.0056215857   2.5419962e-09 -4.1232884e-10 -9.9457582e-10
     21440   214.4          4.4510706e-07  1.4970728e-05 -381513.2       2.1764765e-06  4.8541312      27.91351       3888.3051      6.385732      -1.865015      -0.0057107546   1.85374e-09    7.729698e-10   3.4658058e-09
     21450   214.5          4.502773e-07   1.4937089e-05 -381513.2       2.2017579e-06  4.8541312      27.91351       3888.3051      6.3856979     -1.8649381     -0.0058004345   2.6797154e-09  2.4432842e-11  5.8803722e-11
     21460   214.6          4.5546571e-07  1.4903764e-05 -381513.2       2.227128e-06   4.8541312      27.91351       3888.3051      6.3856636     -1.8648608     -0.005890622    2.1709734e-09  3.0598632e-10  3.8332938e-09
     21470   214.7          4.6067201e-07  1.4869731e-05 -381513.2       2.2525857e-06  4.8541312      27.91351       3888.3051      6.3856291     -1.864783      -0.0059813162   2.1775117e-09 -3.5595325e-10  1.65035e-09  
     21480   214.8          4.6589595e-07  1.4836e-05    -381513.2       2.2781296e-06  4.8541312      27.91351       3888.3051      6.3855944     -1.8647048     -0.006072516    2.5070887e-09 -9.5959718e-10  1.0084322e-09
     21490   214.9          4.7113724e-07  1.4801632e-05 -381513.2       2.3037584e-06  4.8541312      27.91351       3888.3051      6.3855595     -1.8646262     -0.0061642124   1.7977487e-09  5.9140243e-10  5.572031e-09 
     21500   215            4.7639562e-07  1.4767518e-05 -381513.2       2.3294707e-06  4.8541312      27.91351       3888.3051      6.3855244     -1.8645471     -0.0062564214   2.5149699e-09  1.2027961e-10  2.609269e-09 
     21510   215.1          4.8167082e-07  1.4732802e-05 -381513.2       2.3552653e-06  4.8541312      27.91351       3888.3051      6.3854892     -1.8644676     -0.0063491182   1.9754472e-09  6.0117892e-10  5.134271e-09 
     21520   215.2          4.8696257e-07  1.4698293e-05 -381513.2       2.3811408e-06  4.8541312      27.91351       3888.3051      6.3854537     -1.8643877     -0.0064423261   2.1326509e-09 -2.5987348e-10  2.0223668e-09
     21530   215.3          4.9227059e-07  1.4663219e-05 -381513.2       2.4070959e-06  4.8541312      27.91351       3888.3051      6.3854181     -1.8643074     -0.0065360205   2.379624e-09  -8.0983166e-10  5.9695307e-09
     21540   215.4          4.9759462e-07  1.4628326e-05 -381513.2       2.4331292e-06  4.8541312      27.91351       3888.3051      6.3853822     -1.8642266     -0.0066302176   1.857827e-09  -4.4508876e-10  4.8048964e-09
     21550   215.5          5.0293437e-07  1.4592935e-05 -381513.2       2.4592395e-06  4.8541312      27.91351       3888.3051      6.3853462     -1.8641454     -0.0067249085   2.0847191e-09  4.45816e-10    5.1430328e-09
     21560   215.6          5.0828958e-07  1.4557653e-05 -381513.2       2.4854253e-06  4.8541312      27.91351       3888.3051      6.38531       -1.8640638     -0.0068200804   1.9790017e-09  6.8626032e-10  7.8526413e-09
     21570   215.7          5.1365997e-07  1.4521919e-05 -381513.2       2.5116853e-06  4.8541312      27.91351       3888.3051      6.3852737     -1.8639817     -0.0069157634   2.0667707e-09  5.7639738e-10  5.8299112e-09
     21580   215.8          5.1904526e-07  1.4486239e-05 -381513.2       2.5380182e-06  4.8541312      27.91351       3888.3051      6.3852371     -1.8638993     -0.0070119191   1.8072043e-09 -7.7803347e-10  3.2825338e-09
     21590   215.9          5.2444518e-07  1.44502e-05   -381513.2       2.5644226e-06  4.8541312      27.91351       3888.3051      6.3852003     -1.8638164     -0.0071085696   2.2282782e-09 -9.1973711e-10  9.6031142e-09
     21600   216            5.2985945e-07  1.4414135e-05 -381513.2       2.5908972e-06  4.8541312      27.91351       3888.3051      6.3851634     -1.8637331     -0.0072057024   1.8586927e-09 -3.4967917e-10  5.9688219e-09
     21610   216.1          5.3528779e-07  1.4377766e-05 -381513.2       2.6174406e-06  4.8541312      27.91351       3888.3051      6.3851263     -1.8636494     -0.0073033257   1.6577723e-09  1.224385e-09   1.1915661e-08
     21620   216.2          5.4072992e-07  1.4341324e-05 -381513.2       2.6440514e-06  4.8541312      27.91351       3888.3051      6.385089      -1.8635653     -0.00740143     2.0087037e-09  3.155385e-10   4.1807396e-09
     21630   216.3          5.4618556e-07  1.4304612e-05 -381513.2       2.6707283e-06  4.8541312      27.91351       3888.3051      6.3850515     -1.8634807     -0.0075000083   1.6634578e-09  2.2271214e-10  9.670033e-09 
     21640   216.4          5.5165443e-07  1.42678e-05   -381513.2       2.6974699e-06  4.8541312      27.91351       3888.3051      6.3850138     -1.8633958     -0.0075990834   2.1136544e-09 -1.2187171e-09  8.8917352e-09
     21650   216.5          5.5713626e-07  1.4230794e-05 -381513.2       2.7242749e-06  4.8541312      27.91351       3888.3051      6.3849759     -1.8633104     -0.007698616    1.6765933e-09 -6.5461005e-11  1.0508825e-08
     21660   216.6          5.6263075e-07  1.4193579e-05 -381513.2       2.7511417e-06  4.8541312      27.91351       3888.3051      6.3849379     -1.8632247     -0.0077986455   1.6206883e-09  3.3399789e-10  9.5984008e-09
     21670   216.7          5.6813764e-07  1.4156251e-05 -381513.2       2.7780692e-06  4.8541312      27.91351       3888.3051      6.3848997     -1.8631385     -0.0078991309   1.9702908e-09  8.5802211e-10  1.1371735e-08
     21680   216.8          5.7365663e-07  1.4118658e-05 -381513.2       2.8050559e-06  4.8541312      27.91351       3888.3051      6.3848613     -1.8630519     -0.0080001098   1.4848657e-09 -2.9224361e-10  9.1265489e-09
     21690   216.9          5.7918744e-07  1.4081017e-05 -381513.2       2.8321003e-06  4.8541312      27.91351       3888.3051      6.3848228     -1.862965      -0.008101546    1.7324573e-09 -4.8953643e-10  1.0890352e-08
     21700   217            5.8472978e-07  1.4043057e-05 -381513.2       2.8592012e-06  4.8541312      27.91351       3888.3051      6.384784      -1.8628776     -0.0082034577   1.9075184e-09 -1.0266108e-09  9.9469752e-09
     21710   217.1          5.9028339e-07  1.4005104e-05 -381513.2       2.8863571e-06  4.8541312      27.91351       3888.3051      6.3847451     -1.8627898     -0.0083058378   1.3692166e-09  6.0562892e-10  1.639892e-08 
     21720   217.2          5.9584796e-07  1.3966746e-05 -381513.2       2.9135666e-06  4.8541312      27.91351       3888.3051      6.384706      -1.8627017     -0.0084086887   1.6613626e-09  6.6668185e-10  9.4699538e-09
     21730   217.3          6.0142321e-07  1.3928467e-05 -381513.2       2.9408284e-06  4.8541312      27.91351       3888.3051      6.3846667     -1.8626131     -0.0085120005   1.3545591e-09  4.2497248e-10  1.3755001e-08
     21740   217.4          6.0700887e-07  1.3889752e-05 -381513.2       2.968141e-06   4.8541312      27.91351       3888.3051      6.3846273     -1.8625241     -0.008615779    1.7112561e-09 -4.5418455e-10  1.034637e-08 
     21750   217.5          6.1260463e-07  1.3851174e-05 -381513.2       2.9955031e-06  4.8541312      27.91351       3888.3051      6.3845877     -1.8624348     -0.0087200197   1.5284127e-09 -5.7103352e-10  1.6580924e-08
     21760   217.6          6.1821022e-07  1.3812078e-05 -381513.2       3.0229132e-06  4.8541312      27.91351       3888.3051      6.3845479     -1.862345      -0.0088247244   1.4236368e-09 -9.8195853e-11  1.202712e-08 
     21770   217.7          6.2382535e-07  1.3773161e-05 -381513.2       3.05037e-06    4.8541312      27.91351       3888.3051      6.3845079     -1.8622549     -0.0089298821   1.3857159e-09  1.0167595e-09  1.4208646e-08
     21780   217.8          6.2944972e-07  1.3733691e-05 -381513.2       3.0778719e-06  4.8541312      27.91351       3888.3051      6.3844678     -1.8621643     -0.009035502    1.3530974e-09  6.9223491e-10  1.628603e-08 
     21790   217.9          6.3508306e-07  1.3694455e-05 -381513.2       3.1054177e-06  4.8541312      27.91351       3888.3051      6.3844275     -1.8620734     -0.0091415814   1.6183593e-09 -6.4530713e-10  1.3116062e-08
     21800   218            6.4072507e-07  1.3654642e-05 -381513.2       3.1330059e-06  4.8541312      27.91351       3888.3051      6.384387      -1.8619821     -0.0092481104   1.2633886e-09 -6.3137237e-10  1.3413673e-08
     21810   218.1          6.4637546e-07  1.3615093e-05 -381513.2       3.1606351e-06  4.8541312      27.91351       3888.3051      6.3843464     -1.8618904     -0.0093550928   1.6993891e-09 -7.7557025e-10  1.7704196e-08
     21820   218.2          6.5203395e-07  1.3574873e-05 -381513.2       3.1883039e-06  4.8541312      27.91351       3888.3051      6.3843056     -1.8617983     -0.0094625294   1.0061333e-09  9.9830446e-10  1.6689502e-08
     21830   218.3          6.5770024e-07  1.3534992e-05 -381513.2       3.2160108e-06  4.8541312      27.91351       3888.3051      6.3842646     -1.8617059     -0.0095704171   1.0957672e-09  1.334654e-09   1.5351354e-08
     21840   218.4          6.6337404e-07  1.349443e-05  -381513.2       3.2437545e-06  4.8541312      27.91351       3888.3051      6.3842234     -1.861613      -0.0096787501   1.5687297e-09 -4.8036097e-10  1.5772685e-08
     21850   218.5          6.6905506e-07  1.3454222e-05 -381513.2       3.2715334e-06  4.8541312      27.91351       3888.3051      6.3841821     -1.8615198     -0.0097875286   1.0959705e-09 -7.1834016e-10  1.680088e-08 
     21860   218.6          6.7474302e-07  1.3413318e-05 -381513.2       3.2993463e-06  4.8541312      27.91351       3888.3051      6.3841406     -1.8614262     -0.009896763    1.5717091e-09 -8.4679792e-10  1.9182853e-08
     21870   218.7          6.8043762e-07  1.3372754e-05 -381513.2       3.3271916e-06  4.8541312      27.91351       3888.3051      6.384099      -1.8613322     -0.010006425    8.5983282e-10 -1.0065631e-10  1.5104657e-08
     21880   218.8          6.8613856e-07  1.3331468e-05 -381513.2       3.355068e-06   4.8541312      27.91351       3888.3051      6.3840572     -1.8612379     -0.010116544    9.8942753e-10  2.0382482e-09  2.0461619e-08
     21890   218.9          6.9184556e-07  1.3290578e-05 -381513.2       3.382974e-06   4.8541312      27.91351       3888.3051      6.3840152     -1.8611432     -0.010227092    1.3274869e-09  3.8717226e-12  1.6985917e-08
     21900   219            6.9755833e-07  1.3248965e-05 -381513.2       3.4109082e-06  4.8541312      27.91351       3888.3051      6.3839731     -1.8610481     -0.010338091    1.0457718e-09 -8.5247188e-10  1.8196322e-08
     21910   219.1          7.0327656e-07  1.3207734e-05 -381513.2       3.4388691e-06  4.8541312      27.91351       3888.3051      6.3839308     -1.8609526     -0.010449518    1.3323002e-09 -1.12583e-09    1.6875366e-08
     21920   219.2          7.0899997e-07  1.3165755e-05 -381513.2       3.4668553e-06  4.8541312      27.91351       3888.3051      6.3838883     -1.8608567     -0.01056138     1.0157117e-09 -6.922756e-11   2.3582009e-08
     21930   219.3          7.1472827e-07  1.3124159e-05 -381513.2       3.4948654e-06  4.8541312      27.91351       3888.3051      6.3838457     -1.8607606     -0.01067369     6.7131583e-10  1.359615e-09   1.7736841e-08
     21940   219.4          7.2046115e-07  1.308184e-05  -381513.2       3.522898e-06   4.8541312      27.91351       3888.3051      6.3838029     -1.860664      -0.010786414    8.4238474e-10  1.2489751e-09  1.8672111e-08
     21950   219.5          7.2619833e-07  1.3039907e-05 -381513.2       3.5509515e-06  4.8541312      27.91351       3888.3051      6.38376       -1.860567      -0.01089959     1.3269685e-09 -1.5662558e-09  1.9169222e-08
     21960   219.6          7.3193951e-07  1.2997268e-05 -381513.2       3.5790247e-06  4.8541312      27.91351       3888.3051      6.3837169     -1.8604697     -0.011013174    1.1227895e-09 -1.1281744e-09  2.2680776e-08
     21970   219.7          7.376844e-07   1.2954971e-05 -381513.2       3.6071159e-06  4.8541312      27.91351       3888.3051      6.3836736     -1.8603721     -0.011127207    9.5698898e-10 -4.0320308e-10  1.714953e-08 
     21980   219.8          7.434327e-07   1.2911954e-05 -381513.2       3.6352239e-06  4.8541312      27.91351       3888.3051      6.3836302     -1.860274      -0.011241652    6.8147531e-10  1.2025711e-09  2.3177394e-08
     21985   219.85         7.4630804e-07  1.289073e-05  -381513.2       3.6492836e-06  4.8541312      27.91351       3888.3051      6.3836084     -1.8602249     -0.011299035    1.5156059e-09 -1.9546226e-09  2.0954114e-08
Loop time of 1458.29 on 2 procs for 2000 steps with 37830 atoms

96.8% CPU use with 1 MPI tasks x 2 OpenMP threads

Minimization stats:
  Stopping criterion = max iterations
  Energy initial, next-to-last, final = 
     -381513.196932147  -381513.196935717  -381513.196935724
  Force two-norm initial, final = 0.00021932115 1.289073e-05
  Force max component initial, final = 3.7358017e-06 1.2909889e-07
  Final line search alpha, max atom move = 0 0
  Iterations, force evaluations = 2000 2001

MPI task timing breakdown:
Section |  min time  |  avg time  |  max time  |%varavg| %total
---------------------------------------------------------------
Pair    | 1453.1     | 1453.1     | 1453.1     |   0.0 | 99.65
Neigh   | 0          | 0          | 0          |   0.0 |  0.00
Comm    | 3.4631     | 3.4631     | 3.4631     |   0.0 |  0.24
Output  | 0.048584   | 0.048584   | 0.048584   |   0.0 |  0.00
Modify  | 0          | 0          | 0          |   0.0 |  0.00
Other   |            | 1.662      |            |       |  0.11

Nlocal:          37830 ave       37830 max       37830 min
Histogram: 1 0 0 0 0 0 0 0 0 0
Nghost:         214803 ave      214803 max      214803 min
Histogram: 1 0 0 0 0 0 0 0 0 0
Neighs:              0 ave           0 max           0 min
Histogram: 1 0 0 0 0 0 0 0 0 0
FullNghs:  4.64465e+06 ave 4.64465e+06 max 4.64465e+06 min
Histogram: 1 0 0 0 0 0 0 0 0 0

Total # of neighbors = 4644648
Ave neighs/atom = 122.77684
Neighbor list builds = 0
Dangerous builds = 0
System init for write_data ...
System init for write_data ...
- step: 21985
  atoms: 37830
  temp: 7.4630803867781111068e-07
  press: 1.5040281514596656187
  pe: -381513.19693572405959
  ke: 3.6492836327927587462e-06
  etotal: -381513.19693207478849
  vol: 526849.17677548597567
  avecx: 4.854131233584613625
  avecy: 0
  avecz: 0
  bvecx: 0
  bvecy: 27.913510468935530895
  bvecz: 0
  cvecx: 0
  cvecy: 0
  cvecz: 3888.305095464662827
  lx: 4.854131233584613625
  ly: 27.913510468935530895
  lz: 3888.305095464662827
  cella: 4.854131233584613625
  cellb: 27.913510468935530895
  cellc: 3888.305095464662827
  cellalpha: 90
  cellbeta: 90
  cellgamma: 90
  pxx: 6.3836083927911531077
  pyy: -1.8602249036360039014
  pzz: -0.011299034776152235698
  pxy: 1.5156059233740874238e-09
  pyz: 2.0954114143547828485e-08
  pxz: -1.9546225593387909515e-09
  xlo: -8.4684613809999997778e-08
  xhi: 4.8541311488999996371
  ylo: 2.7427644701000001732e-06
  yhi: 27.913513211699999772
  zlo: 2.0117429263816046792
  zhi: 3890.3168383910442572
  xy: 0
  xz: 0
  yz: 0

[GRACE:debug, proc #0]: Data preparation timer: 2.41398e+09 mcs, graph execution time: 1.94307e+10 mcs, data preparation time fraction: 11.05 %
Total wall time: 6:15:14
