
thermo          10
thermo_style    custom step time temp fnorm pe ke lx ly lz pxx pyy pzz pxy pxz pyz

timestep        0.001

min_style       fire
minimize        0.0 1.0e-8 2000 4000

CITE-CITE-CITE-CITE-CITE-CITE-CITE-CITE-CITE-CITE-CITE-CITE-CITE

Your simulation uses code contributions which should be cited:

- Type Label Framework: https://doi.org/10.1021/acs.jpcb.3c08419

@Article{Gissinger24,
 author = {Jacob R. Gissinger, Ilia Nikiforov, Yaser Afshar, Brendon Waters, Moon-ki Choi, Daniel S. Karls, Alexander Stukowski, Wonpil Im, Hendrik Heinz, Axel Kohlmeyer, and Ellad B. Tadmor},
 title = {Type Label Framework for Bonded Force Fields in LAMMPS},
 journal = {J. Phys. Chem. B},
 year =    2024,
 volume =  128,
 number =  13,
 pages =   {3282–-3297}
}

CITE-CITE-CITE-CITE-CITE-CITE-CITE-CITE-CITE-CITE-CITE-CITE-CITE

Switching to 'neigh_modify every 1 delay 0 check yes' setting during minimization
Neighbor list info ...
  update: every = 1 steps, delay = 0 steps, check = yes
  max neighbors/atom: 2000, page size: 100000
  master list distance cutoff = 7.4
  ghost atom cutoff = 7.4
  binsize = 3.7, bins = 3 2 55
  1 neighbor lists, perpetual/occasional/extra = 1 0 0
  (1) pair grace, perpetual
      attributes: full, newton on
      pair build: full/bin/atomonly
      stencil: full/bin/3d
      bin: standard
  Parameters for fire:
    dmax  delaystep dtgrow dtshrink alpha0 alphashrink tmax tmin   integrator   halfstepback   abcfire  
     0.1     20      1.1     0.5     0.25     0.99      10  0.02 eulerimplicit      yes          no     
[GRACE] Atoms padding: new num. of atoms = 321 (incl. 0.935% fake atoms)
[GRACE] Neighbours padding: extending new num. of neighbours = 21406 (incl. 0.990% fake neighbours)
Per MPI rank memory allocation (min/avg/max) = 4.499 | 4.499 | 4.499 Mbytes
   Step          Time           Temp          Fnorm          PotEng         KinEng           Lx             Ly             Lz            Pxx            Pyy            Pzz            Pxy            Pxz            Pyz      
         0   0              0              64.660549     -3144.3186      0              4.9770056      4.3102133      202.37599      175922.06      175922.06      346757.08      9.1034277e-07  9.1847709e-09  1.1024737e-07
        10   0.01           473.28737      53.874505     -3170.8265      19.39317       4.9770056      4.3102133      202.37599      158904.47      158904.47      338643.86      8.7034951e-07  7.3643886e-09  6.8708387e-08
        20   0.02           1358.608       33.396659     -3218.4138      55.669595      4.9770056      4.3102133      202.37599      126197.97      126197.97      326869.35      7.9592927e-07  5.7438883e-09  7.510885e-08 
        30   0.070738431    2302.7426      6.0535126     -3260.3565      94.355951      4.9770056      4.3102133      202.37599      101039.94      101039.94      300352.51      7.029923e-07   2.4024282e-09  2.4637362e-07
        40   0.057062334    1.9403893      3.8978743     -3262.1058      0.079508356    4.9770056      4.3102133      202.37599      104698.79      104698.79      219973.32      6.7385225e-07  2.0871888e-09  3.4816653e-09
        50   0.071327918    8.566429       2.9171609     -3262.3787      0.35101342     4.9770056      4.3102133      202.37599      105285.71      105285.71      219033.61      6.7286582e-07  2.04361e-09    1.3999115e-09
        60   0.16679752     17.040288      1.3949668     -3262.7195      0.69823374     4.9770056      4.3102133      202.37599      106723.03      106723.03      217087.75      6.6992699e-07  1.7992278e-09 -7.7432052e-10
        70   0.50473478     16.198041      0.53733519    -3263.0788      0.66372228     4.9770056      4.3102133      202.37599      108021.76      108021.76      214119.08      6.6235024e-07 -1.6040356e-10  1.7090024e-08
        80   0.8            8.5843572      0.20920769    -3263.2834      0.35174804     4.9770056      4.3102133      202.37599      107855.18      107855.18      213623.08      6.6198611e-07 -3.8720613e-09  3.1689774e-08
        90   0.9            3.3980437      0.17934823    -3263.3519      0.13923642     4.9770056      4.3102133      202.37599      107739.75      107739.75      213350.06      6.619887e-07  -5.7300185e-09  2.381725e-08 
       100   1              1.3593971      0.073180512   -3263.376       0.05570193     4.9770056      4.3102133      202.37599      107700.63      107700.63      213262.68      6.6199678e-07 -6.2527025e-09  1.3039564e-08
       110   1.1            0.48349496     0.058804871   -3263.3825      0.019811431    4.9770056      4.3102133      202.37599      107687.3       107687.3       213237.03      6.6207745e-07 -6.4129764e-09  8.629217e-09 
       120   1.2            0.16491221     0.020452697   -3263.3846      0.0067573548   4.9770056      4.3102133      202.37599      107686.11      107686.11      213223.58      6.6205576e-07 -6.4681778e-09  7.239467e-09 
       130   1.3            0.097807247    0.014668771   -3263.3858      0.0040076975   4.9770056      4.3102133      202.37599      107685.88      107685.88      213211.26      6.6182762e-07 -6.6210125e-09  6.1081118e-09
       140   1.4            0.082503742    0.016085872   -3263.3867      0.0033806293   4.9770056      4.3102133      202.37599      107684.74      107684.74      213202.75      6.6184892e-07 -7.1488076e-09  4.6087943e-09
       150   1.5            0.076131945    0.012152184   -3263.3873      0.0031195419   4.9770056      4.3102133      202.37599      107685.44      107685.44      213192.45      6.6161489e-07 -7.5836813e-09  4.525738e-09 
       160   1.6            0.061347725    0.0061915513  -3263.3878      0.0025137516   4.9770056      4.3102133      202.37599      107686.33      107686.33      213183.8       6.6133857e-07 -8.2189432e-09  3.7395267e-09
       170   1.7            0.041523228    0.0098055045  -3263.388       0.0017014336   4.9770056      4.3102133      202.37599      107686.84      107686.84      213177.2       6.6135857e-07 -9.2966622e-09  3.752707e-09 
       180   1.8            0.024503672    0.0061903938  -3263.3882      0.0010040494   4.9770056      4.3102133      202.37599      107687.65      107687.65      213171.53      6.6118223e-07 -9.3198636e-09  3.1486374e-09
       190   1.9            0.012860175    0.0023506624  -3263.3882      0.00052695168  4.9770056      4.3102133      202.37599      107687.5       107687.5       213168.22      6.6146052e-07 -1.1089775e-08  3.6489987e-09
       200   2              0.00494825     0.0042976858  -3263.3883      0.00020275685  4.9770056      4.3102133      202.37599      107687.61      107687.61      213165.86      6.6101439e-07 -1.1690587e-08  2.9473273e-09
       210   0.525          5.5582455e-08  0.000702672   -3263.3883      2.277517e-09   4.9770056      4.3102133      202.37599      107687.97      107687.97      213165.58      6.6100948e-07 -1.135403e-08   2.966148e-09 
       220   0.55           3.4442354e-07  0.00044717594 -3263.3883      1.4112915e-08  4.9770056      4.3102133      202.37599      107687.96      107687.96      213165.57      6.6098031e-07 -1.1008056e-08  2.9331804e-09
       230   0.765325       6.7928429e-07  0.0003988926  -3263.3883      2.783399e-08   4.9770056      4.3102133      202.37599      107687.94      107687.94      213165.57      6.6104292e-07 -1.0873827e-08  2.7125064e-09
       240   2.0713627      2.2129512e-06  0.00038382606 -3263.3883      9.0676706e-08  4.9770056      4.3102133      202.37599      107687.95      107687.95      213165.54      6.6113109e-07 -1.0809246e-08  2.7542228e-09
       250   2.5            6.7264172e-06  0.00034954072 -3263.3883      2.7561808e-07  4.9770056      4.3102133      202.37599      107687.95      107687.95      213165.48      6.6093344e-07 -1.0840359e-08  2.631035e-09 
       260   2.6            1.3351254e-05  0.00030997649 -3263.3883      5.4707386e-07  4.9770056      4.3102133      202.37599      107687.96      107687.96      213165.39      6.6110946e-07 -1.1058131e-08  2.8967096e-09
       270   2.7            2.128914e-05   0.00026549223 -3263.3883      8.7233244e-07  4.9770056      4.3102133      202.37599      107687.98      107687.98      213165.27      6.6099866e-07 -1.1234914e-08  2.7633862e-09
       280   2.8            2.1876923e-05  0.0002223216  -3263.3883      8.9641713e-07  4.9770056      4.3102133      202.37599      107687.99      107687.99      213165.13      6.6090984e-07 -1.1074136e-08  2.4877583e-09
       290   2.9            1.9770641e-05  0.00034604237 -3263.3883      8.1011123e-07  4.9770056      4.3102133      202.37599      107687.99      107687.99      213165.02      6.6091213e-07 -1.1512849e-08  2.7056367e-09
       300   3              1.6143996e-05  0.00020955426 -3263.3883      6.6150776e-07  4.9770056      4.3102133      202.37599      107688.01      107688.01      213164.91      6.6074431e-07 -1.1518444e-08  2.6459736e-09
       310   3.1            1.2408753e-05  0.0002291573  -3263.3883      5.0845444e-07  4.9770056      4.3102133      202.37599      107688.02      107688.02      213164.82      6.6089246e-07 -1.2013718e-08  2.4592698e-09
       320   3.2            1.0075836e-05  0.00013953848 -3263.3883      4.1286209e-07  4.9770056      4.3102133      202.37599      107688.03      107688.03      213164.74      6.6067154e-07 -1.194292e-08   2.5657398e-09
       330   3.3            6.7061368e-06  7.055025e-05  -3263.3883      2.7478708e-07  4.9770056      4.3102133      202.37599      107688.04      107688.04      213164.67      6.6070628e-07 -1.253198e-08   2.3002238e-09
       340   3.4            4.5736291e-06  0.00011029496 -3263.3883      1.8740659e-07  4.9770056      4.3102133      202.37599      107688.05      107688.05      213164.6       6.6064204e-07 -1.2360035e-08  2.4769194e-09
       350   3.5            3.0054055e-06  6.487647e-05  -3263.3883      1.2314789e-07  4.9770056      4.3102133      202.37599      107688.05      107688.05      213164.56      6.6070891e-07 -1.2793913e-08  2.3282282e-09
       360   3.6            1.7457793e-06  2.8887834e-05 -3263.3883      7.1534122e-08  4.9770056      4.3102133      202.37599      107688.05      107688.05      213164.53      6.6047323e-07 -1.2682753e-08  2.2745954e-09
       370   3.7            7.7530008e-07  2.3868423e-05 -3263.3883      3.1768282e-08  4.9770056      4.3102133      202.37599      107688.05      107688.05      213164.5       6.6065646e-07 -1.3526677e-08  2.3498537e-09
       380   0.95           6.5717264e-13  7.698821e-06  -3263.3883      2.6927955e-14  4.9770056      4.3102133      202.37599      107688.06      107688.06      213164.5       6.6052666e-07 -1.3267784e-08  2.3558234e-09
       390   0.975          1.7630479e-11  2.3815341e-06 -3263.3883      7.224171e-13   4.9770056      4.3102133      202.37599      107688.06      107688.06      213164.5       6.6051486e-07 -1.3138638e-08  2.2248848e-09
       400   1              2.3334358e-11  1.9006702e-06 -3263.3883      9.5613619e-13  4.9770056      4.3102133      202.37599      107688.06      107688.06      213164.5       6.6056567e-07 -1.3200424e-08  2.27607e-09  
       410   2.658586       5.2932702e-11  1.8717288e-06 -3263.3883      2.1689421e-12  4.9770056      4.3102133      202.37599      107688.06      107688.06      213164.5       6.6046864e-07 -1.3163057e-08  2.2941543e-09
       420   4.2            1.5549402e-10  1.7834551e-06 -3263.3883      6.3714398e-12  4.9770056      4.3102133      202.37599      107688.06      107688.06      213164.49      6.6054764e-07 -1.3244511e-08  2.2891198e-09
       430   4.3            3.2225759e-10  1.6437505e-06 -3263.3883      1.3204655e-11  4.9770056      4.3102133      202.37599      107688.06      107688.06      213164.49      6.605024e-07  -1.3313673e-08  2.0775009e-09
       440   4.4            5.3516428e-10  1.4612231e-06 -3263.3883      2.1928606e-11  4.9770056      4.3102133      202.37599      107688.06      107688.06      213164.49      6.6057681e-07 -1.3332848e-08  2.2022833e-09
       450   4.5            5.7374797e-10  1.2976595e-06 -3263.3883      2.350959e-11   4.9770056      4.3102133      202.37599      107688.06      107688.06      213164.49      6.6053616e-07 -1.35659e-08    2.2228106e-09
       460   4.6            5.7537752e-10  1.4420027e-06 -3263.3883      2.3576362e-11  4.9770056      4.3102133      202.37599      107688.06      107688.06      213164.49      6.6035162e-07 -1.3258605e-08  2.2967305e-09
       470   4.7            4.6129271e-10  8.5218139e-07 -3263.3883      1.8901684e-11  4.9770056      4.3102133      202.37599      107688.06      107688.06      213164.49      6.6041062e-07 -1.359917e-08   2.1332033e-09
       480   4.8            3.6857349e-10  7.0637342e-07 -3263.3883      1.510247e-11   4.9770056      4.3102133      202.37599      107688.06      107688.06      213164.49      6.6066793e-07 -1.3770928e-08  2.075693e-09 
       490   4.9            3.505803e-10   6.2378912e-07 -3263.3883      1.4365191e-11  4.9770056      4.3102133      202.37599      107688.06      107688.06      213164.49      6.6034802e-07 -1.3385784e-08  2.0061622e-09
       500   5              2.5297781e-10  4.3658787e-07 -3263.3883      1.0365884e-11  4.9770056      4.3102133      202.37599      107688.06      107688.06      213164.49      6.6051617e-07 -1.387549e-08   2.1015878e-09
       510   5.1            1.6262368e-10  3.0044807e-07 -3263.3883      6.6635812e-12  4.9770056      4.3102133      202.37599      107688.06      107688.06      213164.49      6.6031885e-07 -1.4064456e-08  1.9637709e-09
       520   5.2            1.0010733e-10  4.9627362e-07 -3263.3883      4.1019446e-12  4.9770056      4.3102133      202.37599      107688.06      107688.06      213164.49      6.6033097e-07 -1.3973661e-08  2.1281534e-09
       530   5.3            3.8809423e-11  5.4981521e-07 -3263.3883      1.5902342e-12  4.9770056      4.3102133      202.37599      107688.06      107688.06      213164.49      6.6038539e-07 -1.4227692e-08  1.9562319e-09
       540   2.7            3.5970962e-14  1.0596151e-07 -3263.3883      1.4739269e-15  4.9770056      4.3102133      202.37599      107688.06      107688.06      213164.49      6.6029852e-07 -1.4172953e-08  2.2672506e-09
       550   1.375          3.3763842e-15  5.9452206e-08 -3263.3883      1.3834892e-16  4.9770056      4.3102133      202.37599      107688.06      107688.06      213164.49      6.6032704e-07 -1.4150991e-08  2.1630673e-09
       560   1.4            8.4291467e-15  5.5125713e-08 -3263.3883      3.4538821e-16  4.9770056      4.3102133      202.37599      107688.06      107688.06      213164.49      6.6036047e-07 -1.4317504e-08  2.0756673e-09
       570   3.3600755      2.3927124e-14  5.4743296e-08 -3263.3883      9.8042504e-16  4.9770056      4.3102133      202.37599      107688.06      107688.06      213164.49      6.6037785e-07 -1.4249326e-08  2.0466587e-09
       580   5.8            8.9832944e-14  5.2825111e-08 -3263.3883      3.6809467e-15  4.9770056      4.3102133      202.37599      107688.06      107688.06      213164.49      6.6029492e-07 -1.4391419e-08  1.9879499e-09
       590   5.9            2.1215811e-13  4.931123e-08  -3263.3883      8.6932774e-15  4.9770056      4.3102133      202.37599      107688.06      107688.06      213164.49      6.6021133e-07 -1.4398466e-08  1.8989418e-09
       600   6              3.7896792e-13  4.4537928e-08 -3263.3883      1.5528387e-14  4.9770056      4.3102133      202.37599      107688.06      107688.06      213164.49      6.6024411e-07 -1.4275221e-08  2.1019718e-09
       610   6.1            5.7355311e-13  3.958315e-08  -3263.3883      2.3501606e-14  4.9770056      4.3102133      202.37599      107688.06      107688.06      213164.49      6.6026509e-07 -1.4580877e-08  1.8818459e-09
       620   6.2            5.3775624e-13  5.759806e-08  -3263.3883      2.2034812e-14  4.9770056      4.3102133      202.37599      107688.06      107688.06      213164.49      6.6023756e-07 -1.4473856e-08  2.1145863e-09
       630   6.3            4.4888972e-13  2.6598947e-08 -3263.3883      1.8393465e-14  4.9770056      4.3102133      202.37599      107688.06      107688.06      213164.49      6.6030606e-07 -1.4454025e-08  1.9339069e-09
       640   6.4            3.5496081e-13  2.3761138e-08 -3263.3883      1.4544685e-14  4.9770056      4.3102133      202.37599      107688.06      107688.06      213164.49      6.6032147e-07 -1.4465498e-08  2.2505081e-09
       650   6.5            3.3010334e-13  2.6192393e-08 -3263.3883      1.3526138e-14  4.9770056      4.3102133      202.37599      107688.06      107688.06      213164.49      6.6003433e-07 -1.442895e-08   1.8991671e-09
       660   6.6            2.3314351e-13  2.139373e-08  -3263.3883      9.553164e-15   4.9770056      4.3102133      202.37599      107688.06      107688.06      213164.49      6.6020347e-07 -1.4700681e-08  1.9350029e-09
       670   6.7            1.4141929e-13  1.2494946e-08 -3263.3883      5.7947211e-15  4.9770056      4.3102133      202.37599      107688.06      107688.06      213164.49      6.6017233e-07 -1.5024038e-08  1.988672e-09 
       671   6.71           1.3505918e-13  9.2887998e-09 -3263.3883      5.5341127e-15  4.9770056      4.3102133      202.37599      107688.06      107688.06      213164.49      6.6034835e-07 -1.4900628e-08  1.9619168e-09
Loop time of 4.60241 on 2 procs for 671 steps with 318 atoms

101.6% CPU use with 1 MPI tasks x 2 OpenMP threads

Minimization stats:
  Stopping criterion = force tolerance
  Energy initial, next-to-last, final = 
     -3144.31863789638  -3263.38825888569  -3263.38825888569
  Force two-norm initial, final = 64.660549 9.2887998e-09
  Force max component initial, final = 16.471187 2.8680962e-09
  Final line search alpha, max atom move = 0 0
  Iterations, force evaluations = 671 679

MPI task timing breakdown:
Section |  min time  |  avg time  |  max time  |%varavg| %total
---------------------------------------------------------------
Pair    | 4.5566     | 4.5566     | 4.5566     |   0.0 | 99.01
Neigh   | 0          | 0          | 0          |   0.0 |  0.00
Comm    | 0.02368    | 0.02368    | 0.02368    |   0.0 |  0.51
Output  | 0.014743   | 0.014743   | 0.014743   |   0.0 |  0.32
Modify  | 0          | 0          | 0          |   0.0 |  0.00
Other   |            | 0.007353   |            |       |  0.16

Nlocal:            318 ave         318 max         318 min
Histogram: 1 0 0 0 0 0 0 0 0 0
Nghost:           6814 ave        6814 max        6814 min
Histogram: 1 0 0 0 0 0 0 0 0 0
Neighs:              0 ave           0 max           0 min
Histogram: 1 0 0 0 0 0 0 0 0 0
FullNghs:        38676 ave       38676 max       38676 min
Histogram: 1 0 0 0 0 0 0 0 0 0

Total # of neighbors = 38676
Ave neighs/atom = 121.62264
Neighbor list builds = 0
Dangerous builds = 0

#write_data      fire_${name}.data

fix             3 all box/relax z 0.0 vmax 0.001
min_style       cg
minimize        0.0 1.0e-8 1000 2000
Switching to 'neigh_modify every 1 delay 0 check yes' setting during minimization
WARNING: Energy due to 3 extra global DOFs will be included in minimizer energies
 (src/min.cpp:219)
Per MPI rank memory allocation (min/avg/max) = 5.626 | 5.626 | 5.626 Mbytes
   Step          Time           Temp          Fnorm          PotEng         KinEng           Lx             Ly             Lz            Pxx            Pyy            Pzz            Pxy            Pxz            Pyz      
       671   0.671          1.3505918e-13  9.2888945e-09 -3263.3883      5.5341127e-15  4.9770056      4.3102133      202.37599      107688.06      107688.06      213164.49      6.6041456e-07 -1.4884567e-08  1.9633304e-09
       680   0.68           1.3505918e-13  0.47669566    -3268.1284      5.5341127e-15  4.9770056      4.3102133      204.19737      92223.534      92223.534      176120.23      6.2898838e-07 -1.4028667e-08  2.073406e-09 
       690   0.69           1.3505918e-13  0.94520941    -3272.3837      5.5341127e-15  4.9770056      4.3102133      206.22113      75650.271      75650.271      138563.05      5.9662372e-07 -1.2601421e-08  1.8952794e-09
       700   0.7            1.3505918e-13  1.3656586     -3275.6682      5.5341127e-15  4.9770056      4.3102133      208.24489      59670.496      59670.496      104388.93      5.6737657e-07 -1.1419123e-08  1.9474581e-09
       710   0.71           1.3505918e-13  1.7540523     -3278.0676      5.5341127e-15  4.9770056      4.3102133      210.26865      44249.782      44249.782      73155.446      5.4112278e-07 -1.0321377e-08  1.7805976e-09
       720   0.72           1.3505918e-13  2.1220911     -3279.6559      5.5341127e-15  4.9770056      4.3102133      212.29241      29367.648      29367.648      44444.384      5.177379e-07  -9.0582112e-09  1.437404e-09 
       730   0.73           1.3505918e-13  2.4757346     -3280.4964      5.5341127e-15  4.9770056      4.3102133      214.31617      15014.396      15014.396      17876.146      4.970048e-07  -7.9701403e-09  1.2701734e-09
       740   0.74           1.3505918e-13  2.4612202     -3280.7221      5.5341127e-15  4.9770056      4.3102133      215.93518      3799.2833      3799.2833     -1770.8485      4.8308609e-07 -6.9921641e-09  1.1745671e-09
       750   0.75           1.3505918e-13  0.30236826    -3281.1198      5.5341127e-15  4.9770056      4.3102133      216.03214      1059.7386      1059.7386      117.04893      4.9823915e-07 -1.9857664e-09  3.3010066e-10
       760   0.76           1.3505918e-13  0.092944372   -3281.1292      5.5341127e-15  4.9770056      4.3102133      216.07412      766.04892      766.04892     -256.54337      4.9956501e-07  1.018939e-09  -1.4448273e-10
       770   0.77           1.3505918e-13  0.1289249     -3281.1296      5.5341127e-15  4.9770056      4.3102133      216.04213      985.65995      985.65995      56.467026      5.0047414e-07  9.860823e-10  -9.1327369e-11
       780   0.78           1.3505918e-13  0.14673532    -3281.1297      5.5341127e-15  4.9770056      4.3102133      216.04225      1012.1918      1012.1918      38.54215       5.0059807e-07  9.0947351e-10  8.9753706e-11
       790   0.79           1.3505918e-13  0.12065051    -3281.1299      5.5341127e-15  4.9770056      4.3102133      216.0485       988.31749      988.31749      17.21794       5.0033626e-07  9.1942591e-10 -2.9552413e-12
       800   0.8            1.3505918e-13  0.10447701    -3281.1305      5.5341127e-15  4.9770056      4.3102133      216.04889      946.353        946.353        1.263268       4.9996931e-07  1.4495248e-09  1.1833424e-10
       810   0.81           1.3505918e-13  0.041635819   -3281.1314      5.5341127e-15  4.9770056      4.3102133      216.05092      942.96689      942.96689      8.267892       4.9981162e-07  1.9697816e-09 -3.4803351e-10
       820   0.82           1.3505918e-13  0.051624047   -3281.1315      5.5341127e-15  4.9770056      4.3102133      216.05277      918.55696      918.55696      19.235262      5.0021453e-07  2.0494395e-09 -2.7021706e-10
       830   0.83           1.3505918e-13  0.075856045   -3281.1316      5.5341127e-15  4.9770056      4.3102133      216.05414      924.26639      924.26639      12.052041      4.996928e-07   2.5778256e-09  2.42669e-10  
       840   0.84           1.3505918e-13  0.050644674   -3281.1319      5.5341127e-15  4.9770056      4.3102133      216.0492       959.55796      959.55796      4.1194484      4.9923751e-07  2.4228306e-09 -4.2630197e-10
       850   0.85           1.3505918e-13  0.02865917    -3281.1322      5.5341127e-15  4.9770056      4.3102133      216.05218      939.89202      939.89202      3.0460769      4.9975543e-07  2.8154924e-09 -2.1501903e-10
       860   0.86           1.3505918e-13  0.025659729   -3281.1324      5.5341127e-15  4.9770056      4.3102133      216.0524       938.2507       938.25071      9.4033266      5.0006795e-07  2.8257752e-09  6.9577442e-10
       870   0.87           1.3505918e-13  0.043103848   -3281.1326      5.5341127e-15  4.9770056      4.3102133      216.05895      883.94248      883.94248     -73.277207      4.9852166e-07  2.3333775e-09 -1.6356478e-09
       880   0.88           1.3505918e-13  0.048770791   -3281.1327      5.5341127e-15  4.9770056      4.3102133      216.05102      950.17507      950.17507      6.4585428      4.9977324e-07  2.779738e-09   1.2838653e-09
       890   0.89           1.3505918e-13  0.024840674   -3281.1328      5.5341127e-15  4.9770056      4.3102133      216.05273      936.04132      936.04132      1.9738537      4.9953126e-07  2.3182466e-09 -2.8720943e-10
       900   0.9            1.3505918e-13  0.017084167   -3281.1328      5.5341127e-15  4.9770056      4.3102133      216.05224      939.16347      939.16347      3.6643178      4.9893052e-07  3.1673513e-09 -8.3286509e-10
       910   0.91           1.3505918e-13  0.024807539   -3281.1328      5.5341127e-15  4.9770056      4.3102133      216.05212      939.13225      939.13225      6.3676649      5.0029794e-07  1.982973e-09   9.9431697e-10
       920   0.92           1.3505918e-13  0.024413045   -3281.1329      5.5341127e-15  4.9770056      4.3102133      216.05203      942.42208      942.42208      2.3917915      4.9796149e-07  3.3838129e-09 -1.8892904e-09
       930   0.93           1.3505918e-13  0.02540961    -3281.133       5.5341127e-15  4.9770056      4.3102133      216.05182      935.23811      935.23811      12.575215      5.0070592e-07  1.5672525e-09  1.199695e-09 
       940   0.94           1.3505918e-13  0.046644184   -3281.133       5.5341127e-15  4.9770056      4.3102133      216.05231      942.89474      942.89474      5.5208705      4.978503e-07   4.0181382e-09 -2.1764212e-09
       950   0.95           1.3505918e-13  0.036519024   -3281.1332      5.5341127e-15  4.9770056      4.3102133      216.05292      940.97173      940.97173      5.9571745      4.990778e-07   3.2935316e-09  1.8023734e-10
       960   0.96           1.3505918e-13  0.021024042   -3281.1333      5.5341127e-15  4.9770056      4.3102133      216.05231      939.81357      939.81357      13.817323      4.9851619e-07  2.8098107e-09 -6.8099875e-10
       970   0.97           1.3505918e-13  0.013876206   -3281.1333      5.5341127e-15  4.9770056      4.3102133      216.05298      936.75367      936.75367      1.8085719      4.9964703e-07  2.6536762e-09  4.5705527e-10
       980   0.98           1.3505918e-13  0.011328105   -3281.1333      5.5341127e-15  4.9770056      4.3102133      216.05234      942.37247      942.37247      2.342406       4.9846253e-07  2.746408e-09  -1.0890068e-09
       990   0.99           1.3505918e-13  0.012550174   -3281.1333      5.5341127e-15  4.9770056      4.3102133      216.05261      933.20641      933.20641      2.8888729      4.980458e-07   3.329766e-09  -6.3514442e-10
      1000   1              1.3505918e-13  0.014655963   -3281.1334      5.5341127e-15  4.9770056      4.3102133      216.05267      936.83353      936.83353      1.9895001      5.0060571e-07  2.3707498e-09  9.397107e-10 
      1010   1.01           1.3505918e-13  0.0075587802  -3281.1334      5.5341127e-15  4.9770056      4.3102133      216.05285      937.9657       937.9657       1.1133092      4.9873808e-07  2.3659889e-09 -2.5675554e-10
      1020   1.02           1.3505918e-13  0.0065994039  -3281.1334      5.5341127e-15  4.9770056      4.3102133      216.05298      934.80247      934.80247      1.1561757      4.9782334e-07  3.5076853e-09 -9.0435269e-10
      1030   1.03           1.3505918e-13  0.0068238208  -3281.1334      5.5341127e-15  4.9770056      4.3102133      216.05306      935.34994      935.34994      1.0726666      5.0053747e-07  1.8636826e-09  5.9013416e-10
      1040   1.04           1.3505918e-13  0.0065478664  -3281.1334      5.5341127e-15  4.9770056      4.3102133      216.05291      939.13121      939.13121      1.0396134      4.9777531e-07  3.5026205e-09 -9.1029215e-10
      1050   1.05           1.3505918e-13  0.0077805319  -3281.1334      5.5341127e-15  4.9770056      4.3102133      216.05322      935.29911      935.29911      1.6930161      4.984774e-07   3.4300025e-09 -6.1009079e-10
      1060   1.06           1.3505918e-13  0.0068264532  -3281.1334      5.5341127e-15  4.9770056      4.3102133      216.05319      933.98492      933.98492      1.3720495      5.0048952e-07  1.6674884e-09  9.6416543e-10
      1070   1.07           1.3505918e-13  0.0074204651  -3281.1334      5.5341127e-15  4.9770056      4.3102133      216.05303      936.42302      936.42302      1.1849794      4.9743998e-07  4.1180636e-09 -1.6475709e-09
      1080   1.08           1.3505918e-13  0.0062952418  -3281.1334      5.5341127e-15  4.9770056      4.3102133      216.05286      939.29232      939.29232      1.0203232      4.966344e-07   4.0954999e-09 -1.2412632e-09
      1090   1.09           1.3505918e-13  0.0068859377  -3281.1334      5.5341127e-15  4.9770056      4.3102133      216.05299      935.95719      935.95719      1.1817307      5.0191505e-07  5.9349252e-10  1.9294455e-09
      1100   1.1            1.3505918e-13  0.0071709804  -3281.1334      5.5341127e-15  4.9770056      4.3102133      216.05325      933.52829      933.52829      1.4172194      4.9765019e-07  5.0893536e-09 -1.5243057e-09
      1110   1.11           1.3505918e-13  0.0092233103  -3281.1334      5.5341127e-15  4.9770056      4.3102133      216.05286      938.09794      938.09794      1.9585466      4.9485486e-07  2.5919643e-09 -2.8677462e-09
      1120   1.12           1.3505918e-13  0.0086804081  -3281.1334      5.5341127e-15  4.9770056      4.3102133      216.053        938.69695      938.69695      1.7467899      5.0106908e-07  2.3348234e-09  2.5490165e-09
      1130   1.13           1.3505918e-13  0.0066150581  -3281.1334      5.5341127e-15  4.9770056      4.3102133      216.05315      935.58371      935.58371      1.0868692      5.0088436e-07  2.6257342e-09 -1.6973089e-11
      1140   1.14           1.3505918e-13  0.0049933804  -3281.1334      5.5341127e-15  4.9770056      4.3102133      216.05314      935.05593      935.05593      0.88227587     4.9655002e-07  2.8487928e-09 -3.6322799e-10
      1150   1.15           1.3505918e-13  0.0038452772  -3281.1334      5.5341127e-15  4.9770056      4.3102133      216.053        936.53814      936.53814      0.72390281     4.9824824e-07  3.8773513e-09 -1.4633232e-09
      1160   1.16           1.3505918e-13  0.0030660893  -3281.1334      5.5341127e-15  4.9770056      4.3102133      216.05309      936.09396      936.09396      0.60482938     4.9927344e-07  2.0750737e-09  3.719497e-10 
      1170   1.17           1.3505918e-13  0.0033148981  -3281.1334      5.5341127e-15  4.9770056      4.3102133      216.05315      935.81427      935.81427      0.66505558     4.989166e-07   2.7942946e-09  1.7233108e-10
      1180   1.18           1.3505918e-13  0.0031846899  -3281.1334      5.5341127e-15  4.9770056      4.3102133      216.0532       935.33043      935.33043      0.60916633     4.9712158e-07  3.6490697e-09 -8.9883479e-10
      1190   1.19           1.3505918e-13  0.0022608902  -3281.1334      5.5341127e-15  4.9770056      4.3102133      216.05318      935.49255      935.49255      0.41237417     4.9881353e-07  2.7450157e-09 -5.6540821e-10
      1200   1.2            1.3505918e-13  0.0025443465  -3281.1334      5.5341127e-15  4.9770056      4.3102133      216.05314      935.89443      935.89443      0.50404888     4.9963369e-07  2.4470419e-09 -2.8766943e-10
      1210   1.21           1.3505918e-13  0.0027014157  -3281.1334      5.5341127e-15  4.9770056      4.3102133      216.05313      936.57701      936.57701      0.51284912     4.9737197e-07  3.1565922e-09  1.9474824e-09
      1220   1.22           1.3505918e-13  0.0017084596  -3281.1334      5.5341127e-15  4.9770056      4.3102133      216.05325      935.59416      935.59416      0.31110124     4.9841805e-07  3.084438e-09  -1.7649703e-09
      1230   1.23           1.3505918e-13  0.0015421042  -3281.1334      5.5341127e-15  4.9770056      4.3102133      216.05325      935.35647      935.35647      0.30166257     4.9841861e-07  2.7064824e-09  2.5365597e-10
      1240   1.24           1.3505918e-13  0.0011131064  -3281.1334      5.5341127e-15  4.9770056      4.3102133      216.05324      935.29949      935.29949      0.23476821     4.9862226e-07  2.8788806e-09 -3.3126777e-10
      1250   1.25           1.3505918e-13  0.0010991412  -3281.1334      5.5341127e-15  4.9770056      4.3102133      216.05322      935.65744      935.65744      0.23396284     4.9862254e-07  3.1788507e-09 -1.945812e-11 
      1260   1.26           1.3505918e-13  0.0011383391  -3281.1334      5.5341127e-15  4.9770056      4.3102133      216.05322      935.63814      935.63814      0.25363397     4.978109e-07   2.6650334e-09 -2.5477858e-10
      1270   1.27           1.3505918e-13  0.00091175538 -3281.1334      5.5341127e-15  4.9770056      4.3102133      216.05325      935.26118      935.26118      0.19934015     4.9869884e-07  2.4906392e-09 -8.2365026e-10
      1280   1.28           1.3505918e-13  0.001046919   -3281.1334      5.5341127e-15  4.9770056      4.3102133      216.05325      935.29176      935.29176      0.22878901     4.9936319e-07  3.3343617e-09  1.4439114e-10
      1290   1.29           1.3505918e-13  0.00099444737 -3281.1334      5.5341127e-15  4.9770056      4.3102133      216.0532       935.58014      935.58014      0.21458925     4.9791518e-07  2.8268393e-09 -2.8153831e-10
      1300   1.3            1.3505918e-13  0.0008001475  -3281.1334      5.5341127e-15  4.9770056      4.3102133      216.0532       935.60291      935.60291      0.16726601     4.9764561e-07  2.6304927e-09  3.5903501e-11
      1310   1.31           1.3505918e-13  0.0010699242  -3281.1334      5.5341127e-15  4.9770056      4.3102133      216.05322      935.5055       935.5055       0.21942927     4.9973515e-07  3.4524158e-09 -1.6856989e-10
      1320   1.32           1.3505918e-13  0.0012717751  -3281.1334      5.5341127e-15  4.9770056      4.3102133      216.05319      935.82221      935.82221      0.26202653     4.9863258e-07  2.6561299e-09 -1.3802507e-09
      1330   1.33           1.3505918e-13  0.0013411363  -3281.1334      5.5341127e-15  4.9770056      4.3102133      216.05322      935.57299      935.57299      0.27450904     4.9695611e-07  2.2853889e-09 -1.6261155e-10
      1340   1.34           1.3505918e-13  0.0012210643  -3281.1334      5.5341127e-15  4.9770056      4.3102133      216.05323      935.29957      935.29957      0.23889452     4.993646e-07   4.2950634e-09 -1.4939e-10   
      1350   1.35           1.3505918e-13  0.0012586144  -3281.1334      5.5341127e-15  4.9770056      4.3102133      216.05321      935.36525      935.36525      0.25306771     4.976891e-07   1.6200518e-09 -6.1971432e-10
      1360   1.36           1.3505918e-13  0.00093330965 -3281.1334      5.5341127e-15  4.9770056      4.3102133      216.05319      935.51741      935.51741      0.18626568     4.9811753e-07  1.9708355e-09  1.023528e-09 
      1370   1.37           1.3505918e-13  0.00097876486 -3281.1334      5.5341127e-15  4.9770056      4.3102133      216.0532       935.6108       935.6108       0.19436763     5.0059143e-07  4.6621204e-09 -1.1348653e-09
      1380   1.38           1.3505918e-13  0.00069825037 -3281.1334      5.5341127e-15  4.9770056      4.3102133      216.0532       935.64418      935.64418      0.14599596     4.9756839e-07  2.5634063e-09 -8.3661295e-10
      1390   1.39           1.3505918e-13  0.0011112187  -3281.1334      5.5341127e-15  4.9770056      4.3102133      216.05321      935.44587      935.44587      0.22794504     4.9624844e-07  1.2635882e-09  2.0201331e-09
      1400   1.4            1.3505918e-13  0.0010430211  -3281.1334      5.5341127e-15  4.9770056      4.3102133      216.05321      935.31318      935.31318      0.21075803     5.0155433e-07  4.2778701e-09 -7.9026074e-10
      1410   1.41           1.3505918e-13  0.0013954596  -3281.1334      5.5341127e-15  4.9770056      4.3102133      216.05317      935.66611      935.66611      0.28373264     4.9581715e-07  2.4550245e-09 -2.380646e-10 
      1420   1.42           1.3505918e-13  0.0010726441  -3281.1334      5.5341127e-15  4.9770056      4.3102133      216.0532       935.48185      935.48185      0.21510264     4.9557446e-07  1.0687768e-09 -1.1150714e-09
      1430   1.43           1.3505918e-13  0.00091596233 -3281.1334      5.5341127e-15  4.9770056      4.3102133      216.0532       935.53891      935.53891      0.1840107      5.0161123e-07  4.9098948e-09 -1.3487895e-09
      1440   1.44           1.3505918e-13  0.0008333054  -3281.1334      5.5341127e-15  4.9770056      4.3102133      216.05319      935.62295      935.62295      0.17078275     4.9648207e-07  2.9845002e-09  1.8834179e-09
      1450   1.45           1.3505918e-13  0.00061750471 -3281.1334      5.5341127e-15  4.9770056      4.3102133      216.0532       935.5416       935.5416       0.12806461     4.9727066e-07  1.6825328e-09 -3.041819e-10 
      1460   1.46           1.3505918e-13  0.00052057878 -3281.1334      5.5341127e-15  4.9770056      4.3102133      216.0532       935.52119      935.52119      0.1080014      5.0078333e-07  3.8589259e-09 -1.5832849e-09
      1470   1.47           1.3505918e-13  0.00073086986 -3281.1334      5.5341127e-15  4.9770056      4.3102133      216.0532       935.43901      935.43901      0.15417481     4.9366386e-07  1.8378907e-09  1.5377098e-09
      1480   1.48           1.3505918e-13  0.0007747541  -3281.1334      5.5341127e-15  4.9770056      4.3102133      216.0532       935.59754      935.59754      0.15626301     4.9807491e-07  3.7588335e-09 -3.4448937e-10
      1490   1.49           1.3505918e-13  0.00057819818 -3281.1334      5.5341127e-15  4.9770056      4.3102133      216.05321      935.51141      935.51141      0.12319325     5.0087171e-07  4.3469521e-09 -9.3425851e-10
      1500   1.5            1.3505918e-13  0.0003827072  -3281.1334      5.5341127e-15  4.9770056      4.3102133      216.05321      935.44778      935.44778      0.079260307    4.9532058e-07  6.4706892e-10  4.5835967e-10
      1510   1.51           1.3505918e-13  0.00035376355 -3281.1334      5.5341127e-15  4.9770056      4.3102133      216.05321      935.47548      935.47548      0.085580663    4.995693e-07   3.2599072e-09 -1.0445404e-09
      1520   1.52           1.3505918e-13  0.00030681785 -3281.1334      5.5341127e-15  4.9770056      4.3102133      216.05321      935.48199      935.48199      0.085389803    4.9931646e-07  4.5953408e-09 -2.099424e-10 
      1530   1.53           1.3505918e-13  0.00023898827 -3281.1334      5.5341127e-15  4.9770056      4.3102133      216.0532       935.50822      935.50822      0.079553578    4.9681823e-07  2.5105968e-09  6.6030969e-11
      1540   1.54           1.3505918e-13  0.00026121642 -3281.1334      5.5341127e-15  4.9770056      4.3102133      216.0532       935.50553      935.50553      0.10458089     4.984336e-07   2.0104424e-09 -5.574733e-10 
      1550   1.55           1.3505918e-13  0.00022963151 -3281.1334      5.5341127e-15  4.9770056      4.3102133      216.0532       935.52035      935.52035      0.10763478     4.9899409e-07  2.614527e-09  -3.5964906e-10
      1560   1.56           1.3505918e-13  0.0002295821  -3281.1334      5.5341127e-15  4.9770056      4.3102133      216.0532       935.51573      935.51573      0.12162301     4.9729974e-07  2.7540728e-09 -8.7283306e-11
      1570   1.57           1.3505918e-13  0.00023417627 -3281.1334      5.5341127e-15  4.9770056      4.3102133      216.0532       935.51538      935.51538      0.13508815     4.9712474e-07  3.2227565e-09 -8.2860134e-11
      1580   1.58           1.3505918e-13  0.00027864418 -3281.1334      5.5341127e-15  4.9770056      4.3102133      216.05319      935.54213      935.54213      0.16803351     4.995688e-07   4.2597556e-09 -7.4382229e-10
      1590   1.59           1.3505918e-13  0.00027313405 -3281.1334      5.5341127e-15  4.9770056      4.3102133      216.05319      935.50829      935.50829      0.16981372     5.0019329e-07  3.7638996e-09 -5.775743e-10 
      1600   1.6            1.3505918e-13  0.00033190572 -3281.1334      5.5341127e-15  4.9770056      4.3102133      216.0532       935.48498      935.48498      0.19995595     4.9719106e-07  1.6495269e-09  2.1510438e-10
      1610   1.61           1.3505918e-13  0.00037664806 -3281.1334      5.5341127e-15  4.9770056      4.3102133      216.05319      935.51188      935.51188      0.21483877     4.9455581e-07  1.304885e-11   8.0134272e-10
      1620   1.62           1.3505918e-13  0.00023981851 -3281.1334      5.5341127e-15  4.9770056      4.3102133      216.0532       935.49338      935.49338      0.12750015     4.9545471e-07  7.5713976e-10  6.4156157e-10
      1630   1.63           1.3505918e-13  0.00019637653 -3281.1334      5.5341127e-15  4.9770056      4.3102133      216.05317      935.73085      935.73085      0.53419966     4.9763701e-07  2.7875397e-09 -2.0181569e-10
      1640   1.64           1.3505918e-13  0.00014332314 -3281.1334      5.5341127e-15  4.9770056      4.3102133      216.05319      935.54422      935.54422      0.16204835     4.9810732e-07  2.5043028e-09  2.9310958e-10
      1650   1.65           1.3505918e-13  0.00013513887 -3281.1334      5.5341127e-15  4.9770056      4.3102133      216.0532       935.48263      935.48263      0.049042061    4.9763355e-07  2.9304624e-09 -2.6756838e-10
      1660   1.66           1.3505918e-13  0.0001526565  -3281.1334      5.5341127e-15  4.9770056      4.3102133      216.05321      935.45472      935.45472      0.01633048     4.9856093e-07  3.0720039e-09 -7.0431111e-10
      1670   1.67           1.3505918e-13  0.00012823892 -3281.1334      5.5341127e-15  4.9770056      4.3102133      216.05321      935.44525      935.44525      0.0050093293   4.9801901e-07  3.0089089e-09  1.2787863e-10
      1671   1.671          1.3505918e-13  0.00012659939 -3281.1334      5.5341127e-15  4.9770056      4.3102133      216.05324      935.23244      935.23244     -0.38589736     4.9788599e-07  3.1304929e-09  1.7168816e-10
Loop time of 13.404 on 2 procs for 1000 steps with 318 atoms

103.7% CPU use with 1 MPI tasks x 2 OpenMP threads

Minimization stats:
  Stopping criterion = max iterations
  Energy initial, next-to-last, final = 
     -3263.38825888569  -3281.13339404519   -3281.1333940454
  Force two-norm initial, final = 577.60425 0.0010532883
  Force max component initial, final = 577.60425 0.0010456524
  Final line search alpha, max atom move = 1 0.0010456524
  Iterations, force evaluations = 1000 1929

MPI task timing breakdown:
Section |  min time  |  avg time  |  max time  |%varavg| %total
---------------------------------------------------------------
Pair    | 13.162     | 13.162     | 13.162     |   0.0 | 98.20
Neigh   | 0.01575    | 0.01575    | 0.01575    |   0.0 |  0.12
Comm    | 0.066092   | 0.066092   | 0.066092   |   0.0 |  0.49
Output  | 0.0033767  | 0.0033767  | 0.0033767  |   0.0 |  0.03
Modify  | 0          | 0          | 0          |   0.0 |  0.00
Other   |            | 0.1564     |            |       |  1.17

Nlocal:            318 ave         318 max         318 min
Histogram: 1 0 0 0 0 0 0 0 0 0
Nghost:           6773 ave        6773 max        6773 min
Histogram: 1 0 0 0 0 0 0 0 0 0
Neighs:              0 ave           0 max           0 min
Histogram: 1 0 0 0 0 0 0 0 0 0
FullNghs:        35870 ave       35870 max       35870 min
Histogram: 1 0 0 0 0 0 0 0 0 0

Total # of neighbors = 35870
Ave neighs/atom = 112.79874
Neighbor list builds = 17
Dangerous builds = 0
unfix           3
min_style       fire
minimize        0.0 1.0e-8 2000 4000
Switching to 'neigh_modify every 1 delay 0 check yes' setting during minimization
  Parameters for fire:
    dmax  delaystep dtgrow dtshrink alpha0 alphashrink tmax tmin   integrator   halfstepback   abcfire  
     0.1     20      1.1     0.5     0.25     0.99      10  0.02 eulerimplicit      yes          no     
Per MPI rank memory allocation (min/avg/max) = 4.502 | 4.502 | 4.502 Mbytes
   Step          Time           Temp          Fnorm          PotEng         KinEng           Lx             Ly             Lz            Pxx            Pyy            Pzz            Pxy            Pxz            Pyz      
      1671   1.671          0              0.00012659939 -3281.1334      0              4.9770056      4.3102133      216.05324      935.23244      935.23244     -0.38589736     4.9788208e-07  3.1900186e-09  1.6351345e-10
      1680   1.68           1.1947871e-09  0.00011731077 -3281.1334      4.8956959e-11  4.9770056      4.3102133      216.05324      935.23257      935.23257     -0.38627424     4.9791723e-07  2.9858041e-09  2.0918447e-10
      1690   1.69           4.7746397e-09  9.4301358e-05 -3281.1334      1.9564309e-10  4.9770056      4.3102133      216.05324      935.23313      935.23313     -0.38725815     4.9793489e-07  2.9472714e-09  1.6708282e-10
      1700   3.644101       1.0712124e-08  6.7118271e-05 -3281.1334      4.3893426e-10  4.9770056      4.3102133      216.05324      935.23403      935.23403     -0.387677       4.9792322e-07  2.895729e-09   3.9395537e-11
      1710   9.5074586      2.4240293e-08  4.1699007e-05 -3281.1334      9.9325729e-10  4.9770056      4.3102133      216.05324      935.23304      935.23304     -0.38225555     4.9809178e-07  2.8174743e-09 -2.7997475e-10
      1720   17.2           4.4884967e-08  2.3175979e-05 -3281.1334      1.8391824e-09  4.9770056      4.3102133      216.05324      935.23202      935.23202     -0.38595571     4.9801472e-07  2.93407e-09   -3.40709e-10  
      1730   17.3           6.3965265e-08  1.9891033e-05 -3281.1334      2.6210065e-09  4.9770056      4.3102133      216.05324      935.23063      935.23063     -0.38484698     4.9815196e-07  2.839198e-09  -3.3270705e-10
      1740   17.4           9.8109148e-08  1.8079017e-05 -3281.1334      4.020068e-09   4.9770056      4.3102133      216.05324      935.23232      935.23233     -0.38101435     4.9800934e-07  2.9307715e-09 -2.2497785e-10
      1750   17.5           1.3840929e-07  1.6316499e-05 -3281.1334      5.671385e-09   4.9770056      4.3102133      216.05324      935.23391      935.23391     -0.37703144     4.9816317e-07  2.8540919e-09 -2.4694938e-10
      1760   17.6           1.8188287e-07  1.4292785e-05 -3281.1334      7.4527354e-09  4.9770056      4.3102133      216.05324      935.23531      935.23531     -0.37276952     4.9803406e-07  2.7974841e-09 -1.552066e-10 
      1770   17.7           1.8616632e-07  1.2318661e-05 -3281.1334      7.6282515e-09  4.9770056      4.3102133      216.05324      935.2371       935.2371      -0.36805568     4.9801579e-07  2.7900403e-09 -4.3168528e-10
      1780   17.8           1.7818076e-07  1.3561289e-05 -3281.1334      7.3010398e-09  4.9770056      4.3102133      216.05324      935.23873      935.23873     -0.3631868      4.9817637e-07  2.691252e-09  -2.6184291e-10
      1790   17.9           1.4610953e-07  8.2635244e-06 -3281.1334      5.9869061e-09  4.9770056      4.3102133      216.05324      935.24038      935.24038     -0.35937326     4.9803913e-07  2.8883666e-09 -3.7563391e-10
      1800   18             1.2971666e-07  1.1644587e-05 -3281.1334      5.3152007e-09  4.9770056      4.3102133      216.05324      935.24181      935.24181     -0.35494725     4.9790434e-07  2.8334832e-09 -2.9385085e-10
      1810   18.1           1.0445037e-07  4.6407954e-06 -3281.1334      4.2799025e-09  4.9770056      4.3102133      216.05324      935.24318      935.24318     -0.35192754     4.9799783e-07  3.1689187e-09 -7.0733892e-11
      1820   18.2           7.1711034e-08  3.4087268e-06 -3281.1334      2.938393e-09   4.9770056      4.3102133      216.05324      935.24432      935.24432     -0.34884517     4.978503e-07   2.8708654e-09 -3.3197899e-10
      1830   18.3           4.765274e-08   2.2551931e-06 -3281.1334      1.9525932e-09  4.9770056      4.3102133      216.05324      935.24539      935.24539     -0.34619939     4.9795715e-07  2.7865062e-09 -3.6175938e-10
      1840   18.4           2.1543455e-08  6.6721334e-06 -3281.1334      8.827531e-10   4.9770056      4.3102133      216.05324      935.24612      935.24612     -0.34507012     4.9807029e-07  3.0246857e-09 -5.1986272e-10
      1850   9.25           7.2704221e-13  3.9662965e-06 -3281.1334      2.9790894e-14  4.9770056      4.3102133      216.05324      935.24647      935.24647     -0.34332149     4.9797818e-07  2.9133449e-09 -3.0908474e-10
      1860   4.65           5.7899132e-14  4.2090487e-07 -3281.1334      2.3724439e-15  4.9770056      4.3102133      216.05324      935.24653      935.24653     -0.34329481     4.9800412e-07  2.9647726e-09 -3.4951695e-10
      1870   4.675          2.4914183e-13  2.8664706e-07 -3281.1334      1.0208703e-14  4.9770056      4.3102133      216.05324      935.24652      935.24652     -0.34331578     4.9793182e-07  2.9773609e-09 -2.9377155e-10
      1880   7.569397       4.8732154e-13  2.7399887e-07 -3281.1334      1.9968227e-14  4.9770056      4.3102133      216.05324      935.24652      935.24652     -0.34331937     4.9787732e-07  2.9230164e-09 -2.4911766e-10
      1890   18.9           1.6059866e-12  2.7114037e-07 -3281.1334      6.5806048e-14  4.9770056      4.3102133      216.05324      935.24653      935.24653     -0.34332878     4.9787655e-07  2.962278e-09  -2.8133677e-10
      1900   19             4.3524723e-12  2.6083148e-07 -3281.1334      1.7834458e-13  4.9770056      4.3102133      216.05324      935.24654      935.24654     -0.34330693     4.978351e-07   3.0430273e-09 -3.1677972e-10
      1910   19.1           8.4695475e-12  2.4765477e-07 -3281.1334      3.4704365e-13  4.9770056      4.3102133      216.05324      935.24655      935.24655     -0.34328063     4.9789114e-07  2.9433572e-09 -2.7955215e-10
      1920   19.2           1.3795592e-11  2.3057378e-07 -3281.1334      5.6528083e-13  4.9770056      4.3102133      216.05324      935.24656      935.24656     -0.34324484     4.978807e-07   3.0139745e-09 -2.610727e-10 
      1930   19.3           2.0038916e-11  2.0966811e-07 -3281.1334      8.2110392e-13  4.9770056      4.3102133      216.05324      935.24658      935.24658     -0.34320114     4.9788315e-07  2.9072043e-09 -2.3420744e-10
      1940   19.4           2.6810064e-11  1.851503e-07  -3281.1334      1.0985548e-12  4.9770056      4.3102133      216.05324      935.24659      935.2466      -0.34314973     4.9780363e-07  2.9075881e-09 -3.6732478e-10
      1950   19.5           3.3622511e-11  1.5958799e-07 -3281.1334      1.377698e-12   4.9770056      4.3102133      216.05324      935.24662      935.24662     -0.34309297     4.9783833e-07  2.9680733e-09 -3.0156248e-10
      1960   19.6           3.1015944e-11  2.1749153e-07 -3281.1334      1.2708928e-12  4.9770056      4.3102133      216.05324      935.24664      935.24664     -0.34302129     4.9778951e-07  2.91204e-09   -3.7194944e-10
      1970   19.7           3.0741689e-11  1.2688744e-07 -3281.1334      1.2596551e-12  4.9770056      4.3102133      216.05324      935.24666      935.24666     -0.3429791      4.978087e-07   2.881145e-09  -3.133064e-10 
      1980   19.8           2.2687898e-11  8.9855573e-08 -3281.1334      9.2964717e-13  4.9770056      4.3102133      216.05324      935.24668      935.24668     -0.34291854     4.97883e-07    2.9899876e-09 -3.179695e-10 
      1990   19.9           1.5761589e-11  6.1816726e-08 -3281.1334      6.4583846e-13  4.9770056      4.3102133      216.05324      935.2467       935.2467      -0.3428743      4.9784186e-07  2.9949002e-09 -3.2121251e-10
      2000   20             1.2010992e-11  6.87079e-08   -3281.1334      4.92156e-13    4.9770056      4.3102133      216.05324      935.24672      935.24672     -0.34284167     4.9768374e-07  2.9183725e-09 -1.9484985e-10
      2010   20.1           6.7394613e-12  4.0649092e-08 -3281.1334      2.7615257e-13  4.9770056      4.3102133      216.05324      935.24672      935.24672     -0.34280575     4.9768727e-07  3.1305697e-09 -3.4285822e-10
      2020   20.2           3.3982143e-12  2.0897111e-08 -3281.1334      1.3924341e-13  4.9770056      4.3102133      216.05324      935.24673      935.24673     -0.34278354     4.9829458e-07  2.6445005e-09  2.7843924e-11
      2030   20.3           1.4001079e-12  6.4817123e-08 -3281.1334      5.7370074e-14  4.9770056      4.3102133      216.05324      935.24674      935.24674     -0.34276352     4.9782037e-07  3.9585568e-09 -2.5832862e-10
      2037   10.185         6.2535687e-16  9.5350212e-09 -3281.1334      2.5624289e-17  4.9770056      4.3102133      216.05324      935.24674      935.24674     -0.34276515     4.9740158e-07  3.11967e-09   -2.8505953e-10
Loop time of 2.37462 on 2 procs for 366 steps with 318 atoms

103.7% CPU use with 1 MPI tasks x 2 OpenMP threads

Minimization stats:
  Stopping criterion = force tolerance
  Energy initial, next-to-last, final = 
      -3281.1333940454  -3281.13339405838  -3281.13339405838
  Force two-norm initial, final = 0.00012659939 9.5350212e-09
  Force max component initial, final = 5.376656e-05 3.4902005e-09
  Final line search alpha, max atom move = 0 0
  Iterations, force evaluations = 366 370

MPI task timing breakdown:
Section |  min time  |  avg time  |  max time  |%varavg| %total
---------------------------------------------------------------
Pair    | 2.3625     | 2.3625     | 2.3625     |   0.0 | 99.49
Neigh   | 0          | 0          | 0          |   0.0 |  0.00
Comm    | 0.0085259  | 0.0085259  | 0.0085259  |   0.0 |  0.36
Output  | 0.00063526 | 0.00063526 | 0.00063526 |   0.0 |  0.03
Modify  | 0          | 0          | 0          |   0.0 |  0.00
Other   |            | 0.002995   |            |       |  0.13

Nlocal:            318 ave         318 max         318 min
Histogram: 1 0 0 0 0 0 0 0 0 0
Nghost:           6773 ave        6773 max        6773 min
Histogram: 1 0 0 0 0 0 0 0 0 0
Neighs:              0 ave           0 max           0 min
Histogram: 1 0 0 0 0 0 0 0 0 0
FullNghs:        36098 ave       36098 max       36098 min
Histogram: 1 0 0 0 0 0 0 0 0 0

Total # of neighbors = 36098
Ave neighs/atom = 113.51572
Neighbor list builds = 0
Dangerous builds = 0

fix             3 all box/relax z 0.0 vmax 0.001
min_style       cg
minimize        0.0 1.0e-8 1000 2000
Switching to 'neigh_modify every 1 delay 0 check yes' setting during minimization
WARNING: Energy due to 3 extra global DOFs will be included in minimizer energies
 (src/min.cpp:219)
Per MPI rank memory allocation (min/avg/max) = 5.627 | 5.627 | 5.627 Mbytes
   Step          Time           Temp          Fnorm          PotEng         KinEng           Lx             Ly             Lz            Pxx            Pyy            Pzz            Pxy            Pxz            Pyz      
      2037   2.037          6.2535687e-16  9.5350237e-09 -3281.1334      2.5624289e-17  4.9770056      4.3102133      216.05324      935.24674      935.24674     -0.34276515     4.9738668e-07  3.0604129e-09 -3.184492e-10 
      2040   2.04           6.2535687e-16  2.7181986e-06 -3281.1334      2.5624289e-17  4.9770056      4.3102133      216.05321      935.43694      935.43694     -6.1941593e-06  4.9758125e-07  3.0579955e-09 -3.2622098e-10
      2050   2.05           6.2535687e-16  2.4771634e-07 -3281.1334      2.5624289e-17  4.9770056      4.3102133      216.05321      935.43939      935.43939     -0.00016714927  4.9755101e-07  3.2294342e-09 -3.3073051e-10
      2060   2.06           6.2535687e-16  9.8126862e-08 -3281.1334      2.5624289e-17  4.9770056      4.3102133      216.05321      935.43949      935.43949     -1.9948955e-06  4.9746121e-07  3.2315067e-09 -2.1987294e-10
      2070   2.07           6.2535687e-16  6.5941475e-08 -3281.1334      2.5624289e-17  4.9770056      4.3102133      216.05321      935.43949      935.43949     -5.2091133e-05  4.9751248e-07  3.1950467e-09 -1.4835379e-10
      2080   2.08           6.2535687e-16  4.6633548e-08 -3281.1334      2.5624289e-17  4.9770056      4.3102133      216.05321      935.43952      935.43952     -6.0686742e-07  4.9786741e-07  2.7954068e-09 -6.1348734e-11
      2090   2.09           6.2535687e-16  4.8026634e-08 -3281.1334      2.5624289e-17  4.9770056      4.3102133      216.05321      935.43952      935.43952     -1.3022005e-06  4.9792267e-07  2.4083552e-09 -1.1715171e-10
      2100   2.1            6.2535687e-16  3.779188e-08  -3281.1334      2.5624289e-17  4.9770056      4.3102133      216.05321      935.43937      935.43937     -0.00026087083  4.9794739e-07  2.3309449e-09 -6.9312364e-11
      2110   2.11           6.2535687e-16  1.6030763e-08 -3281.1334      2.5624289e-17  4.9770056      4.3102133      216.05321      935.43951      935.43951     -5.5026015e-06  4.9789704e-07  3.2406408e-09 -7.7732703e-10
      2119   2.119          6.2535687e-16  8.9204137e-09 -3281.1334      2.5624289e-17  4.9770056      4.3102133      216.05321      935.43952      935.43952      1.286494e-06   4.9778052e-07  2.8563909e-09 -2.5516238e-10
Loop time of 1.05884 on 2 procs for 82 steps with 318 atoms

101.3% CPU use with 1 MPI tasks x 2 OpenMP threads

Minimization stats:
  Stopping criterion = force tolerance
  Energy initial, next-to-last, final = 
     -3281.13339405838  -3281.13339405845  -3281.13339405845
  Force two-norm initial, final = 0.00099154855 9.6655984e-09
  Force max component initial, final = 0.00099154855 3.7215604e-09
  Final line search alpha, max atom move = 1 3.7215604e-09
  Iterations, force evaluations = 82 164

MPI task timing breakdown:
Section |  min time  |  avg time  |  max time  |%varavg| %total
---------------------------------------------------------------
Pair    | 1.045      | 1.045      | 1.045      |   0.0 | 98.70
Neigh   | 0          | 0          | 0          |   0.0 |  0.00
Comm    | 0.0035366  | 0.0035366  | 0.0035366  |   0.0 |  0.33
Output  | 0.00012992 | 0.00012992 | 0.00012992 |   0.0 |  0.01
Modify  | 0          | 0          | 0          |   0.0 |  0.00
Other   |            | 0.01013    |            |       |  0.96

Nlocal:            318 ave         318 max         318 min
Histogram: 1 0 0 0 0 0 0 0 0 0
Nghost:           6773 ave        6773 max        6773 min
Histogram: 1 0 0 0 0 0 0 0 0 0
Neighs:              0 ave           0 max           0 min
Histogram: 1 0 0 0 0 0 0 0 0 0
FullNghs:        36098 ave       36098 max       36098 min
Histogram: 1 0 0 0 0 0 0 0 0 0

Total # of neighbors = 36098
Ave neighs/atom = 113.51572
Neighbor list builds = 0
Dangerous builds = 0
unfix           3
min_style       fire
minimize        0.0 1.0e-8 2000 4000
Switching to 'neigh_modify every 1 delay 0 check yes' setting during minimization
  Parameters for fire:
    dmax  delaystep dtgrow dtshrink alpha0 alphashrink tmax tmin   integrator   halfstepback   abcfire  
     0.1     20      1.1     0.5     0.25     0.99      10  0.02 eulerimplicit      yes          no     
Per MPI rank memory allocation (min/avg/max) = 4.502 | 4.502 | 4.502 Mbytes
   Step          Time           Temp          Fnorm          PotEng         KinEng           Lx             Ly             Lz            Pxx            Pyy            Pzz            Pxy            Pxz            Pyz      
      2119   2.119          0              8.9204346e-09 -3281.1334      0              4.9770056      4.3102133      216.05321      935.43952      935.43952      1.2864301e-06  4.9777683e-07  2.8457983e-09 -2.5105583e-10
      2120   2.12           1.0330728e-19  8.903825e-09  -3281.1334      4.2330641e-21  4.9770056      4.3102133      216.05321      935.43952      935.43952      1.2864461e-06  4.978192e-07   2.881414e-09  -2.928313e-10 
Loop time of 0.0198678 on 2 procs for 1 steps with 318 atoms

107.2% CPU use with 1 MPI tasks x 2 OpenMP threads

Minimization stats:
  Stopping criterion = force tolerance
  Energy initial, next-to-last, final = 
     -3281.13339405845  -3281.13339405845  -3281.13339405845
  Force two-norm initial, final = 8.9204346e-09 8.903825e-09
  Force max component initial, final = 3.2490144e-09 3.2408953e-09
  Final line search alpha, max atom move = 0 0
  Iterations, force evaluations = 1 2

MPI task timing breakdown:
Section |  min time  |  avg time  |  max time  |%varavg| %total
---------------------------------------------------------------
Pair    | 0.019772   | 0.019772   | 0.019772   |   0.0 | 99.52
Neigh   | 0          | 0          | 0          |   0.0 |  0.00
Comm    | 5.8635e-05 | 5.8635e-05 | 5.8635e-05 |   0.0 |  0.30
Output  | 0          | 0          | 0          |   0.0 |  0.00
Modify  | 0          | 0          | 0          |   0.0 |  0.00
Other   |            | 3.669e-05  |            |       |  0.18

Nlocal:            318 ave         318 max         318 min
Histogram: 1 0 0 0 0 0 0 0 0 0
Nghost:           6773 ave        6773 max        6773 min
Histogram: 1 0 0 0 0 0 0 0 0 0
Neighs:              0 ave           0 max           0 min
Histogram: 1 0 0 0 0 0 0 0 0 0
FullNghs:        36098 ave       36098 max       36098 min
Histogram: 1 0 0 0 0 0 0 0 0 0

Total # of neighbors = 36098
Ave neighs/atom = 113.51572
Neighbor list builds = 0
Dangerous builds = 0

fix             3 all box/relax z 0.0 vmax 0.001
min_style       cg
minimize        0.0 1.0e-8 1000 2000
Switching to 'neigh_modify every 1 delay 0 check yes' setting during minimization
WARNING: Energy due to 3 extra global DOFs will be included in minimizer energies
 (src/min.cpp:219)
Per MPI rank memory allocation (min/avg/max) = 5.627 | 5.627 | 5.627 Mbytes
   Step          Time           Temp          Fnorm          PotEng         KinEng           Lx             Ly             Lz            Pxx            Pyy            Pzz            Pxy            Pxz            Pyz      
      2120   2.12           1.0330728e-19  8.9038292e-09 -3281.1334      4.2330641e-21  4.9770056      4.3102133      216.05321      935.43952      935.43952      1.2865382e-06  4.977601e-07   2.8967656e-09 -3.1735545e-10
      2122   2.122          1.0330728e-19  6.5792251e-09 -3281.1334      4.2330641e-21  4.9770056      4.3102133      216.05321      935.43952      935.43952      2.9363266e-08  4.9790287e-07  2.8432653e-09 -2.5176584e-10
Loop time of 0.0324947 on 2 procs for 2 steps with 318 atoms

100.3% CPU use with 1 MPI tasks x 2 OpenMP threads

Minimization stats:
  Stopping criterion = force tolerance
  Energy initial, next-to-last, final = 
     -3281.13339405845  -3281.13339405845  -3281.13339405845
  Force two-norm initial, final = 9.6503437e-09 6.5797734e-09
  Force max component initial, final = 3.7216878e-09 1.9615734e-09
  Final line search alpha, max atom move = 1 1.9615734e-09
  Iterations, force evaluations = 2 4

MPI task timing breakdown:
Section |  min time  |  avg time  |  max time  |%varavg| %total
---------------------------------------------------------------
Pair    | 0.032146   | 0.032146   | 0.032146   |   0.0 | 98.93
Neigh   | 0          | 0          | 0          |   0.0 |  0.00
Comm    | 9.6512e-05 | 9.6512e-05 | 9.6512e-05 |   0.0 |  0.30
Output  | 0          | 0          | 0          |   0.0 |  0.00
Modify  | 0          | 0          | 0          |   0.0 |  0.00
Other   |            | 0.0002525  |            |       |  0.78

Nlocal:            318 ave         318 max         318 min
Histogram: 1 0 0 0 0 0 0 0 0 0
Nghost:           6773 ave        6773 max        6773 min
Histogram: 1 0 0 0 0 0 0 0 0 0
Neighs:              0 ave           0 max           0 min
Histogram: 1 0 0 0 0 0 0 0 0 0
FullNghs:        36098 ave       36098 max       36098 min
Histogram: 1 0 0 0 0 0 0 0 0 0

Total # of neighbors = 36098
Ave neighs/atom = 113.51572
Neighbor list builds = 0
Dangerous builds = 0
unfix           3
min_style       fire
minimize        0.0 1.0e-8 2000 4000
Switching to 'neigh_modify every 1 delay 0 check yes' setting during minimization
  Parameters for fire:
    dmax  delaystep dtgrow dtshrink alpha0 alphashrink tmax tmin   integrator   halfstepback   abcfire  
     0.1     20      1.1     0.5     0.25     0.99      10  0.02 eulerimplicit      yes          no     
Per MPI rank memory allocation (min/avg/max) = 4.502 | 4.502 | 4.502 Mbytes
   Step          Time           Temp          Fnorm          PotEng         KinEng           Lx             Ly             Lz            Pxx            Pyy            Pzz            Pxy            Pxz            Pyz      
      2122   2.122          0              6.5790173e-09 -3281.1334      0              4.9770056      4.3102133      216.05321      935.43952      935.43952      2.9274841e-08  4.9793649e-07  2.8301781e-09 -1.9878371e-10
      2123   2.123          5.8168598e-20  6.56488e-09   -3281.1334      2.3834854e-21  4.9770056      4.3102133      216.05321      935.43952      935.43952      2.917045e-08   4.9803075e-07  2.8398496e-09 -2.1288797e-10
Loop time of 0.0191217 on 2 procs for 1 steps with 318 atoms

95.6% CPU use with 1 MPI tasks x 2 OpenMP threads

Minimization stats:
  Stopping criterion = force tolerance
  Energy initial, next-to-last, final = 
     -3281.13339405845  -3281.13339405845  -3281.13339405845
  Force two-norm initial, final = 6.5790173e-09 6.56488e-09
  Force max component initial, final = 1.9617594e-09 1.9540005e-09
  Final line search alpha, max atom move = 0 0
  Iterations, force evaluations = 1 2

MPI task timing breakdown:
Section |  min time  |  avg time  |  max time  |%varavg| %total
---------------------------------------------------------------
Pair    | 0.01903    | 0.01903    | 0.01903    |   0.0 | 99.52
Neigh   | 0          | 0          | 0          |   0.0 |  0.00
Comm    | 5.6394e-05 | 5.6394e-05 | 5.6394e-05 |   0.0 |  0.29
Output  | 0          | 0          | 0          |   0.0 |  0.00
Modify  | 0          | 0          | 0          |   0.0 |  0.00
Other   |            | 3.571e-05  |            |       |  0.19

Nlocal:            318 ave         318 max         318 min
Histogram: 1 0 0 0 0 0 0 0 0 0
Nghost:           6773 ave        6773 max        6773 min
Histogram: 1 0 0 0 0 0 0 0 0 0
Neighs:              0 ave           0 max           0 min
Histogram: 1 0 0 0 0 0 0 0 0 0
FullNghs:        36098 ave       36098 max       36098 min
Histogram: 1 0 0 0 0 0 0 0 0 0

Total # of neighbors = 36098
Ave neighs/atom = 113.51572
Neighbor list builds = 0
Dangerous builds = 0

fix             3 all box/relax z 0.0 vmax 0.001
min_style       cg
minimize        0.0 1.0e-8 1000 2000
Switching to 'neigh_modify every 1 delay 0 check yes' setting during minimization
WARNING: Energy due to 3 extra global DOFs will be included in minimizer energies
 (src/min.cpp:219)
Per MPI rank memory allocation (min/avg/max) = 5.627 | 5.627 | 5.627 Mbytes
   Step          Time           Temp          Fnorm          PotEng         KinEng           Lx             Ly             Lz            Pxx            Pyy            Pzz            Pxy            Pxz            Pyz      
      2123   2.123          5.8168598e-20  6.5649375e-09 -3281.1334      2.3834854e-21  4.9770056      4.3102133      216.05321      935.43952      935.43952      2.9359581e-08  4.9807911e-07  2.6811143e-09 -2.0087537e-10
      2125   2.125          5.8168598e-20  5.818151e-09  -3281.1334      2.3834854e-21  4.9770056      4.3102133      216.05321      935.43952      935.43952      3.3173895e-07  4.9802277e-07  2.8065367e-09 -5.7760303e-12
Loop time of 0.0315197 on 2 procs for 2 steps with 318 atoms

106.7% CPU use with 1 MPI tasks x 2 OpenMP threads

Minimization stats:
  Stopping criterion = force tolerance
  Energy initial, next-to-last, final = 
     -3281.13339405845  -3281.13339405845  -3281.13339405845
  Force two-norm initial, final = 6.5654869e-09 5.896763e-09
  Force max component initial, final = 1.9543422e-09 2.3443832e-09
  Final line search alpha, max atom move = 1 2.3443832e-09
  Iterations, force evaluations = 2 4

MPI task timing breakdown:
Section |  min time  |  avg time  |  max time  |%varavg| %total
---------------------------------------------------------------
Pair    | 0.031174   | 0.031174   | 0.031174   |   0.0 | 98.90
Neigh   | 0          | 0          | 0          |   0.0 |  0.00
Comm    | 9.1369e-05 | 9.1369e-05 | 9.1369e-05 |   0.0 |  0.29
Output  | 0          | 0          | 0          |   0.0 |  0.00
Modify  | 0          | 0          | 0          |   0.0 |  0.00
Other   |            | 0.0002548  |            |       |  0.81

Nlocal:            318 ave         318 max         318 min
Histogram: 1 0 0 0 0 0 0 0 0 0
Nghost:           6773 ave        6773 max        6773 min
Histogram: 1 0 0 0 0 0 0 0 0 0
Neighs:              0 ave           0 max           0 min
Histogram: 1 0 0 0 0 0 0 0 0 0
FullNghs:        36098 ave       36098 max       36098 min
Histogram: 1 0 0 0 0 0 0 0 0 0

Total # of neighbors = 36098
Ave neighs/atom = 113.51572
Neighbor list builds = 0
Dangerous builds = 0
unfix           3
min_style       fire
minimize        0.0 1.0e-8 2000 4000
Switching to 'neigh_modify every 1 delay 0 check yes' setting during minimization
  Parameters for fire:
    dmax  delaystep dtgrow dtshrink alpha0 alphashrink tmax tmin   integrator   halfstepback   abcfire  
     0.1     20      1.1     0.5     0.25     0.99      10  0.02 eulerimplicit      yes          no     
Per MPI rank memory allocation (min/avg/max) = 4.502 | 4.502 | 4.502 Mbytes
   Step          Time           Temp          Fnorm          PotEng         KinEng           Lx             Ly             Lz            Pxx            Pyy            Pzz            Pxy            Pxz            Pyz      
      2125   2.125          0              5.8195255e-09 -3281.1334      0              4.9770056      4.3102133      216.05321      935.43952      935.43952      3.316886e-07   4.980415e-07   2.6781591e-09 -1.7828936e-10
      2126   2.126          4.2936049e-20  5.8069461e-09 -3281.1334      1.7593246e-21  4.9770056      4.3102133      216.05321      935.43952      935.43952      3.314356e-07   4.9809737e-07  2.735881e-09  -2.1354042e-10
Loop time of 0.018838 on 2 procs for 1 steps with 318 atoms

103.9% CPU use with 1 MPI tasks x 2 OpenMP threads

Minimization stats:
  Stopping criterion = force tolerance
  Energy initial, next-to-last, final = 
     -3281.13339405845  -3281.13339405845  -3281.13339405845
  Force two-norm initial, final = 5.8195255e-09 5.8069461e-09
  Force max component initial, final = 2.3457126e-09 2.3378262e-09
  Final line search alpha, max atom move = 0 0
  Iterations, force evaluations = 1 2

MPI task timing breakdown:
Section |  min time  |  avg time  |  max time  |%varavg| %total
---------------------------------------------------------------
Pair    | 0.018744   | 0.018744   | 0.018744   |   0.0 | 99.50
Neigh   | 0          | 0          | 0          |   0.0 |  0.00
Comm    | 5.7317e-05 | 5.7317e-05 | 5.7317e-05 |   0.0 |  0.30
Output  | 0          | 0          | 0          |   0.0 |  0.00
Modify  | 0          | 0          | 0          |   0.0 |  0.00
Other   |            | 3.697e-05  |            |       |  0.20

Nlocal:            318 ave         318 max         318 min
Histogram: 1 0 0 0 0 0 0 0 0 0
Nghost:           6773 ave        6773 max        6773 min
Histogram: 1 0 0 0 0 0 0 0 0 0
Neighs:              0 ave           0 max           0 min
Histogram: 1 0 0 0 0 0 0 0 0 0
FullNghs:        36098 ave       36098 max       36098 min
Histogram: 1 0 0 0 0 0 0 0 0 0

Total # of neighbors = 36098
Ave neighs/atom = 113.51572
Neighbor list builds = 0
Dangerous builds = 0

fix             3 all box/relax z 0.0 vmax 0.001
min_style       cg
minimize        0.0 1.0e-8 1000 2000
Switching to 'neigh_modify every 1 delay 0 check yes' setting during minimization
WARNING: Energy due to 3 extra global DOFs will be included in minimizer energies
 (src/min.cpp:219)
Per MPI rank memory allocation (min/avg/max) = 5.627 | 5.627 | 5.627 Mbytes
   Step          Time           Temp          Fnorm          PotEng         KinEng           Lx             Ly             Lz            Pxx            Pyy            Pzz            Pxy            Pxz            Pyz      
      2126   2.126          4.2936049e-20  5.8076125e-09 -3281.1334      1.7593246e-21  4.9770056      4.3102133      216.05321      935.43952      935.43952      3.3150929e-07  4.979827e-07   2.8461054e-09 -2.3645264e-10
      2128   2.128          4.2936049e-20  5.245502e-09  -3281.1334      1.7593246e-21  4.9770056      4.3102133      216.05321      935.43952      935.43952      2.975381e-08   4.9792436e-07  2.8794183e-09 -3.03232e-10  
Loop time of 0.0311826 on 2 procs for 2 steps with 318 atoms

101.8% CPU use with 1 MPI tasks x 2 OpenMP threads

Minimization stats:
  Stopping criterion = force tolerance
  Energy initial, next-to-last, final = 
     -3281.13339405845  -3281.13339405844  -3281.13339405845
  Force two-norm initial, final = 5.8862569e-09 5.2462081e-09
  Force max component initial, final = 2.3383596e-09 2.2927729e-09
  Final line search alpha, max atom move = 1 2.2927729e-09
  Iterations, force evaluations = 2 4

MPI task timing breakdown:
Section |  min time  |  avg time  |  max time  |%varavg| %total
---------------------------------------------------------------
Pair    | 0.030833   | 0.030833   | 0.030833   |   0.0 | 98.88
Neigh   | 0          | 0          | 0          |   0.0 |  0.00
Comm    | 9.2666e-05 | 9.2666e-05 | 9.2666e-05 |   0.0 |  0.30
Output  | 0          | 0          | 0          |   0.0 |  0.00
Modify  | 0          | 0          | 0          |   0.0 |  0.00
Other   |            | 0.0002573  |            |       |  0.83

Nlocal:            318 ave         318 max         318 min
Histogram: 1 0 0 0 0 0 0 0 0 0
Nghost:           6773 ave        6773 max        6773 min
Histogram: 1 0 0 0 0 0 0 0 0 0
Neighs:              0 ave           0 max           0 min
Histogram: 1 0 0 0 0 0 0 0 0 0
FullNghs:        36098 ave       36098 max       36098 min
Histogram: 1 0 0 0 0 0 0 0 0 0

Total # of neighbors = 36098
Ave neighs/atom = 113.51572
Neighbor list builds = 0
Dangerous builds = 0
unfix           3
min_style       fire
minimize        0.0 1.0e-8 2000 4000
Switching to 'neigh_modify every 1 delay 0 check yes' setting during minimization
  Parameters for fire:
    dmax  delaystep dtgrow dtshrink alpha0 alphashrink tmax tmin   integrator   halfstepback   abcfire  
     0.1     20      1.1     0.5     0.25     0.99      10  0.02 eulerimplicit      yes          no     
Per MPI rank memory allocation (min/avg/max) = 4.502 | 4.502 | 4.502 Mbytes
   Step          Time           Temp          Fnorm          PotEng         KinEng           Lx             Ly             Lz            Pxx            Pyy            Pzz            Pxy            Pxz            Pyz      
      2128   2.128          0              5.2454596e-09 -3281.1334      0              4.9770056      4.3102133      216.05321      935.43952      935.43952      2.9768547e-08  4.9786541e-07  2.9164156e-09 -3.2877318e-10
      2129   2.129          3.5732507e-20  5.2347417e-09 -3281.1334      1.4641561e-21  4.9770056      4.3102133      216.05321      935.43952      935.43952      3.0294185e-08  4.9785344e-07  2.9039424e-09 -3.0390363e-10
Loop time of 0.0186121 on 2 procs for 1 steps with 318 atoms

94.2% CPU use with 1 MPI tasks x 2 OpenMP threads

Minimization stats:
  Stopping criterion = force tolerance
  Energy initial, next-to-last, final = 
     -3281.13339405845  -3281.13339405845  -3281.13339405845
  Force two-norm initial, final = 5.2454596e-09 5.2347417e-09
  Force max component initial, final = 2.2927423e-09 2.2849833e-09
  Final line search alpha, max atom move = 0 0
  Iterations, force evaluations = 1 2

MPI task timing breakdown:
Section |  min time  |  avg time  |  max time  |%varavg| %total
---------------------------------------------------------------
Pair    | 0.018517   | 0.018517   | 0.018517   |   0.0 | 99.49
Neigh   | 0          | 0          | 0          |   0.0 |  0.00
Comm    | 5.8929e-05 | 5.8929e-05 | 5.8929e-05 |   0.0 |  0.32
Output  | 0          | 0          | 0          |   0.0 |  0.00
Modify  | 0          | 0          | 0          |   0.0 |  0.00
Other   |            | 3.58e-05   |            |       |  0.19

Nlocal:            318 ave         318 max         318 min
Histogram: 1 0 0 0 0 0 0 0 0 0
Nghost:           6773 ave        6773 max        6773 min
Histogram: 1 0 0 0 0 0 0 0 0 0
Neighs:              0 ave           0 max           0 min
Histogram: 1 0 0 0 0 0 0 0 0 0
FullNghs:        36098 ave       36098 max       36098 min
Histogram: 1 0 0 0 0 0 0 0 0 0

Total # of neighbors = 36098
Ave neighs/atom = 113.51572
Neighbor list builds = 0
Dangerous builds = 0

fix             3 all box/relax z 0.0 vmax 0.001
min_style       cg
minimize        0.0 1.0e-8 1000 2000
Switching to 'neigh_modify every 1 delay 0 check yes' setting during minimization
WARNING: Energy due to 3 extra global DOFs will be included in minimizer energies
 (src/min.cpp:219)
Per MPI rank memory allocation (min/avg/max) = 5.627 | 5.627 | 5.627 Mbytes
   Step          Time           Temp          Fnorm          PotEng         KinEng           Lx             Ly             Lz            Pxx            Pyy            Pzz            Pxy            Pxz            Pyz      
      2129   2.129          3.5732507e-20  5.2347578e-09 -3281.1334      1.4641561e-21  4.9770056      4.3102133      216.05321      935.43952      935.43952      3.0267166e-08  4.9784331e-07  2.8971493e-09 -2.8695933e-10
      2130   2.13           3.5732507e-20  4.5277347e-09 -3281.1334      1.4641561e-21  4.9770056      4.3102133      216.05321      935.43951      935.43951     -1.013612e-05   4.978539e-07   2.8743523e-09 -2.5136286e-10
      2131   2.131          3.5732507e-20  4.9779869e-09 -3281.1334      1.4641561e-21  4.9770056      4.3102133      216.05321      935.43952      935.43952      2.6278581e-07  4.9777714e-07  3.0667075e-09 -2.6304925e-10
Loop time of 0.0323597 on 2 procs for 2 steps with 318 atoms

103.0% CPU use with 1 MPI tasks x 2 OpenMP threads

Minimization stats:
  Stopping criterion = force tolerance
  Energy initial, next-to-last, final = 
     -3281.13339405845  -3281.13339405845  -3281.13339405845
  Force two-norm initial, final = 5.2354899e-09 5.0356961e-09
  Force max component initial, final = 2.2849723e-09 2.4906864e-09
  Final line search alpha, max atom move = 1 2.4906864e-09
  Iterations, force evaluations = 2 4

MPI task timing breakdown:
Section |  min time  |  avg time  |  max time  |%varavg| %total
---------------------------------------------------------------
Pair    | 0.031995   | 0.031995   | 0.031995   |   0.0 | 98.87
Neigh   | 0          | 0          | 0          |   0.0 |  0.00
Comm    | 9.2019e-05 | 9.2019e-05 | 9.2019e-05 |   0.0 |  0.28
Output  | 1.26e-05   | 1.26e-05   | 1.26e-05   |   0.0 |  0.04
Modify  | 0          | 0          | 0          |   0.0 |  0.00
Other   |            | 0.00026    |            |       |  0.80

Nlocal:            318 ave         318 max         318 min
Histogram: 1 0 0 0 0 0 0 0 0 0
Nghost:           6773 ave        6773 max        6773 min
Histogram: 1 0 0 0 0 0 0 0 0 0
Neighs:              0 ave           0 max           0 min
Histogram: 1 0 0 0 0 0 0 0 0 0
FullNghs:        36098 ave       36098 max       36098 min
Histogram: 1 0 0 0 0 0 0 0 0 0

Total # of neighbors = 36098
Ave neighs/atom = 113.51572
Neighbor list builds = 0
Dangerous builds = 0
unfix           3
min_style       fire
minimize        0.0 1.0e-8 2000 4000
Switching to 'neigh_modify every 1 delay 0 check yes' setting during minimization
  Parameters for fire:
    dmax  delaystep dtgrow dtshrink alpha0 alphashrink tmax tmin   integrator   halfstepback   abcfire  
     0.1     20      1.1     0.5     0.25     0.99      10  0.02 eulerimplicit      yes          no     
Per MPI rank memory allocation (min/avg/max) = 4.502 | 4.502 | 4.502 Mbytes
   Step          Time           Temp          Fnorm          PotEng         KinEng           Lx             Ly             Lz            Pxx            Pyy            Pzz            Pxy            Pxz            Pyz      
      2131   2.131          0              4.9771697e-09 -3281.1334      0              4.9770056      4.3102133      216.05321      935.43952      935.43952      2.6222947e-07  4.97843e-07    3.0256037e-09 -2.2342299e-10
      2132   2.132          3.0043454e-20  4.9674106e-09 -3281.1334      1.2310445e-21  4.9770056      4.3102133      216.05321      935.43952      935.43952      2.617898e-07   4.9782565e-07  2.9868409e-09 -2.3378531e-10
Loop time of 0.0187084 on 2 procs for 1 steps with 318 atoms

99.4% CPU use with 1 MPI tasks x 2 OpenMP threads

Minimization stats:
  Stopping criterion = force tolerance
  Energy initial, next-to-last, final = 
     -3281.13339405845  -3281.13339405845  -3281.13339405845
  Force two-norm initial, final = 4.9771697e-09 4.9674106e-09
  Force max component initial, final = 2.4902228e-09 2.4826101e-09
  Final line search alpha, max atom move = 0 0
  Iterations, force evaluations = 1 2

MPI task timing breakdown:
Section |  min time  |  avg time  |  max time  |%varavg| %total
---------------------------------------------------------------
Pair    | 0.018582   | 0.018582   | 0.018582   |   0.0 | 99.32
Neigh   | 0          | 0          | 0          |   0.0 |  0.00
Comm    | 7.8028e-05 | 7.8028e-05 | 7.8028e-05 |   0.0 |  0.42
Output  | 0          | 0          | 0          |   0.0 |  0.00
Modify  | 0          | 0          | 0          |   0.0 |  0.00
Other   |            | 4.855e-05  |            |       |  0.26

Nlocal:            318 ave         318 max         318 min
Histogram: 1 0 0 0 0 0 0 0 0 0
Nghost:           6773 ave        6773 max        6773 min
Histogram: 1 0 0 0 0 0 0 0 0 0
Neighs:              0 ave           0 max           0 min
Histogram: 1 0 0 0 0 0 0 0 0 0
FullNghs:        36098 ave       36098 max       36098 min
Histogram: 1 0 0 0 0 0 0 0 0 0

Total # of neighbors = 36098
Ave neighs/atom = 113.51572
Neighbor list builds = 0
Dangerous builds = 0


write_data      fire_cg_${name}.data
write_data      fire_cg_lmps.data
System init for write_data ...

write_data      bi_minimised.data
System init for write_data ...

print """- step: $(step)
  atoms: $(atoms)
  temp: $(temp)
  press: $(press)
  pe: $(pe)
  ke: $(ke)
  etotal: $(etotal)
  vol: $(vol)
  avecx: $(avecx)
  avecy: $(avecy)
  avecz: $(avecz)
  bvecx: $(bvecx)
  bvecy: $(bvecy)
  bvecz: $(bvecz)
  cvecx: $(cvecx)
  cvecy: $(cvecy)
  cvecz: $(cvecz)
  lx: $(lx)
  ly: $(ly)
  lz: $(lz)
  cella: $(cella)
  cellb: $(cellb)
  cellc: $(cellc)
  cellalpha: $(cellalpha)
  cellbeta: $(cellbeta)
  cellgamma: $(cellgamma)
  pxx: $(pxx)
  pyy: $(pyy)
  pzz: $(pzz)
  pxy: $(pxy)
  pyz: $(pyz)
  pxz: $(pxz)
  xlo: $(xlo)
  xhi: $(xhi)
  ylo: $(ylo)
  yhi: $(yhi)
  zlo: $(zlo)
  zhi: $(zhi)
  xy: $(xy)
  xz: $(xz)
  yz: $(yz)
""" file bi_minimised.data.yaml screen yes universe no
- step: 2132
  atoms: 318
  temp: 3.0043453775974298716e-20
  press: 623.62634488409025835
  pe: -3281.1333940584481752
  ke: 1.2310445176684857347e-21
  etotal: -3281.1333940584481752
  vol: 4634.7639820806462012
  avecx: 4.9770056176543331361
  avecy: 0
  avecz: 0
  bvecx: -2.4885028088300003013
  bvecy: 4.3102132996662358977
  bvecz: 0
  cvecx: 0
  cvecy: 0
  cvecz: 216.05321323863856264
  lx: 4.9770056176543331361
  ly: 4.3102132996662358977
  lz: 216.05321323863856264
  cella: 4.9770056176543331361
  cellb: 4.9770056176555090843
  cellc: 216.05321323863856264
  cellalpha: 90
  cellbeta: 90
  cellgamma: 120.00000000002985701
  pxx: 935.43951714648733287
  pyy: 935.43951724399346404
  pzz: 2.617898043996158449e-07
  pxy: 4.9782565207971247929e-07
  pyz: -2.3378530669991473222e-10
  pxz: 2.9868409248819541734e-09
  xlo: -0.019038925427171102256
  xhi: 4.9579666922271616869
  ylo: -0.016488193083117452103
  yhi: 4.293725106583118567
  zlo: -6.8386119906693707549
  zhi: 209.21460124796919899
  xy: -2.4885028088300003013
  xz: 0
  yz: 0

[GRACE:debug, proc #0]: Data preparation timer: 1.64332e+06 mcs, graph execution time: 2.37095e+07 mcs, data preparation time fraction: 6.48 %
Total wall time: 0:00:28
