
thermo          10
thermo_style    custom step time temp fnorm pe ke lx ly lz pxx pyy pzz pxy pxz pyz

timestep        0.001

min_style       fire
minimize        0.0 1.0e-8 2000 4000

CITE-CITE-CITE-CITE-CITE-CITE-CITE-CITE-CITE-CITE-CITE-CITE-CITE

Your simulation uses code contributions which should be cited:

- Type Label Framework: https://doi.org/10.1021/acs.jpcb.3c08419

@Article{Gissinger24,
 author = {Jacob R. Gissinger, Ilia Nikiforov, Yaser Afshar, Brendon Waters, Moon-ki Choi, Daniel S. Karls, Alexander Stukowski, Wonpil Im, Hendrik Heinz, Axel Kohlmeyer, and Ellad B. Tadmor},
 title = {Type Label Framework for Bonded Force Fields in LAMMPS},
 journal = {J. Phys. Chem. B},
 year =    2024,
 volume =  128,
 number =  13,
 pages =   {3282–-3297}
}

CITE-CITE-CITE-CITE-CITE-CITE-CITE-CITE-CITE-CITE-CITE-CITE-CITE

Switching to 'neigh_modify every 1 delay 0 check yes' setting during minimization
Neighbor list info ...
  update: every = 1 steps, delay = 0 steps, check = yes
  max neighbors/atom: 2000, page size: 100000
  master list distance cutoff = 7.4
  ghost atom cutoff = 7.4
  binsize = 3.7, bins = 3 2 58
  1 neighbor lists, perpetual/occasional/extra = 1 0 0
  (1) pair grace, perpetual
      attributes: full, newton on
      pair build: full/bin/atomonly
      stencil: full/bin/3d
      bin: standard
  Parameters for fire:
    dmax  delaystep dtgrow dtshrink alpha0 alphashrink tmax tmin   integrator   halfstepback   abcfire  
     0.1     20      1.1     0.5     0.25     0.99      10  0.02 eulerimplicit      yes          no     
[GRACE] Atoms padding: new num. of atoms = 339 (incl. 0.885% fake atoms)
[GRACE] Neighbours padding: extending new num. of neighbours = 22820 (incl. 0.990% fake neighbours)
Per MPI rank memory allocation (min/avg/max) = 4.517 | 4.517 | 4.517 Mbytes
   Step          Time           Temp          Fnorm          PotEng         KinEng           Lx             Ly             Lz            Pxx            Pyy            Pzz            Pxy            Pxz            Pyz      
         0   0              0              74.417502     -3300.8512      0              4.9770056      4.3102133      211.91346      206166.91      206166.91      400211.56      9.4039106e-07  1.585087e-08   6.8082199e-07
        10   0.01           549.97717      57.598581     -3332.4898      23.815193      4.9770056      4.3102133      211.91346      186872.2       186872.2       389846.13      8.9899675e-07  1.1712402e-08  3.9723706e-07
        20   0.02           1459.9327      34.286776     -3384.8785      63.218221      4.9770056      4.3102133      211.91346      153134.91      153134.91      373911.34      8.2029505e-07  6.7062418e-09  2.3585893e-07
        30   0.070738431    2640.5305      7.5451234     -3430.9216      114.34064      4.9770056      4.3102133      211.91346      125397.17      125397.17      350371.09      7.2579377e-07  4.1279728e-09  3.0174917e-07
        40   0.083544963    1.0737777      4.2565399     -3435.6803      0.04649688     4.9770056      4.3102133      211.91346      136254.17      136254.17      243494.75      6.6625016e-07 -3.1084671e-09  2.0811091e-08
        50   0.1044312      11.867955      3.458613      -3436.1772      0.51390797     4.9770056      4.3102133      211.91346      134719.37      134719.37      244543.32      6.7069569e-07 -3.5946534e-09  2.9225237e-08
        60   0.16679752     26.911711      2.136802      -3436.8606      1.1653349      4.9770056      4.3102133      211.91346      131947.53      131947.53      246716.1       6.7929864e-07 -4.4032723e-09  4.1983216e-08
        70   0.50473478     35.446509      1.0641964     -3437.7603      1.53491        4.9770056      4.3102133      211.91346      128195.68      128195.68      249167.45      6.922892e-07  -1.1105495e-08  4.8509262e-08
        80   0.8            46.465535      0.60872057    -3438.8139      2.0120575      4.9770056      4.3102133      211.91346      128366.94      128366.94      245311.55      6.6613283e-07 -1.0042811e-07 -1.1559241e-07
        90   0.45           0.0097993797   0.65750539    -3440.1307      0.00042433419  4.9770056      4.3102133      211.91346      126831.16      126831.16      244281.13      1.0056857e-06  4.7717419e-07  1.580973e-06 
       100   0.5            0.54628414     0.37701615    -3440.1589      0.023655277    4.9770056      4.3102133      211.91346      126942.45      126942.45      244116.38      9.4719802e-07  3.8049104e-07  1.2611388e-06
       110   0.55           1.1638164      0.29168771    -3440.1955      0.05039575     4.9770056      4.3102133      211.91346      126946.75      126946.75      244045.43      8.7718888e-07  1.4271925e-07  4.7467308e-07
       120   1.2            2.8539867      0.22964266    -3440.2732      0.12358376     4.9770056      4.3102133      211.91346      126895.47      126895.47      243975.06      7.8838314e-07 -8.722954e-08  -2.9411234e-07
       130   1.3            5.1507298      0.15587778    -3440.3733      0.22303767     4.9770056      4.3102133      211.91346      126797.09      126797.09      243847.11      7.0740401e-07 -5.0940257e-08 -1.8009665e-07
       140   1.4            2.8405727      0.097056864   -3440.4381      0.1230029      4.9770056      4.3102133      211.91346      126719.02      126719.02      243642.99      7.043694e-07  -2.3806428e-08 -9.5705107e-08
       150   1.5            1.0582726      0.059878174   -3440.4605      0.045825476    4.9770056      4.3102133      211.91346      126675.16      126675.16      243548.65      7.0019499e-07 -1.2723085e-08 -6.8419915e-08
       160   1.6            0.32720418     0.025428106   -3440.4662      0.014168644    4.9770056      4.3102133      211.91346      126655.26      126655.26      243521.97      6.9762295e-07 -5.5993507e-09 -5.479155e-08 
       170   1.7            0.076077035    0.014408708   -3440.4673      0.0032942991   4.9770056      4.3102133      211.91346      126647.67      126647.67      243516.8       6.9504182e-07  4.5079805e-10 -4.38453e-08  
       180   1.8            0.025672366    0.0090949378  -3440.4677      0.0011116686   4.9770056      4.3102133      211.91346      126645.34      126645.34      243517.03      6.9370888e-07  4.6044938e-09 -3.7204539e-08
       190   1.9            0.018666686    0.0071778455  -3440.4679      0.00080830762  4.9770056      4.3102133      211.91346      126645.67      126645.67      243517.81      6.9239194e-07  7.9318921e-09 -3.2818813e-08
       200   2              0.018175961    0.0066405274  -3440.4681      0.00078705815  4.9770056      4.3102133      211.91346      126646.49      126646.49      243518.73      6.9130249e-07  1.0879678e-08 -2.9519592e-08
       210   2.1            0.016466158    0.0043427796  -3440.4683      0.00071302004  4.9770056      4.3102133      211.91346      126647.23      126647.23      243519.73      6.9019708e-07  1.4094551e-08 -2.6355275e-08
       220   2.2            0.013827262    0.0055535026  -3440.4684      0.00059875015  4.9770056      4.3102133      211.91346      126647.75      126647.75      243520.74      6.8917786e-07  1.7383102e-08 -2.3795986e-08
       230   2.3            0.0096851658   0.0025836349  -3440.4684      0.00041938849  4.9770056      4.3102133      211.91346      126648.07      126648.07      243521.66      6.8780622e-07  2.0072092e-08 -2.1028467e-08
       240   2.4            0.0058639213   0.0017626334  -3440.4684      0.00025392039  4.9770056      4.3102133      211.91346      126648.21      126648.21      243522.49      6.8698138e-07  2.3381506e-08 -1.8952889e-08
       250   2.5            0.0030687016   0.0012084278  -3440.4685      0.00013288137  4.9770056      4.3102133      211.91346      126648.32      126648.32      243523.17      6.8599519e-07  2.5285197e-08 -1.7708161e-08
       260   2.6            0.0013332593   0.00077914286 -3440.4685      5.7732994e-05  4.9770056      4.3102133      211.91346      126648.41      126648.41      243523.64      6.8490773e-07  2.8566542e-08 -1.5829865e-08
       270   1.35           2.8947609e-08  0.00012992279 -3440.4685      1.2534936e-09  4.9770056      4.3102133      211.91346      126648.49      126648.49      243523.66      6.849791e-07   2.8942464e-08 -1.5888434e-08
       280   1.4            4.8835813e-08  8.5673061e-05 -3440.4685      2.1146956e-09  4.9770056      4.3102133      211.91346      126648.49      126648.49      243523.66      6.8487642e-07  2.9089665e-08 -1.5612285e-08
       290   2.5687635      1.3007246e-07  7.7360816e-05 -3440.4685      5.632417e-09   4.9770056      4.3102133      211.91346      126648.49      126648.49      243523.66      6.8473494e-07  2.9257641e-08 -1.5590287e-08
       300   3              3.2351921e-07  6.1052362e-05 -3440.4685      1.4009077e-08  4.9770056      4.3102133      211.91346      126648.5       126648.5       243523.66      6.8456715e-07  2.9582674e-08 -1.5593575e-08
       310   3.1            5.3255108e-07  3.9565345e-05 -3440.4685      2.3060606e-08  4.9770056      4.3102133      211.91346      126648.52      126648.52      243523.65      6.8443192e-07  2.9811017e-08 -1.5358938e-08
       320   3.2            2.4999477e-07  3.1868249e-05 -3440.4685      1.0825311e-08  4.9770056      4.3102133      211.91346      126648.53      126648.53      243523.65      6.8412046e-07  3.0500865e-08 -1.5371441e-08
       330   3.3            7.8879894e-08  1.5523111e-05 -3440.4685      3.4156689e-09  4.9770056      4.3102133      211.91346      126648.54      126648.54      243523.65      6.8412922e-07  3.1460159e-08 -1.4874989e-08
       340   3.4            3.2519329e-08  9.0110306e-06 -3440.4685      1.4081568e-09  4.9770056      4.3102133      211.91346      126648.54      126648.54      243523.65      6.8372995e-07  3.2133728e-08 -1.4493907e-08
       350   3.5            2.0996037e-08  7.8944646e-06 -3440.4685      9.0917353e-10  4.9770056      4.3102133      211.91346      126648.54      126648.54      243523.65      6.8343727e-07  3.2711038e-08 -1.4484043e-08
       360   3.6            1.7309491e-08  5.3937679e-06 -3440.4685      7.4953816e-10  4.9770056      4.3102133      211.91346      126648.54      126648.54      243523.65      6.8333788e-07  3.3610686e-08 -1.3957229e-08
       370   3.7            1.7163084e-08  5.8051062e-06 -3440.4685      7.431984e-10   4.9770056      4.3102133      211.91346      126648.54      126648.54      243523.65      6.8294441e-07  3.4414824e-08 -1.4111884e-08
       380   3.8            1.234274e-08   3.5494943e-06 -3440.4685      5.3446718e-10  4.9770056      4.3102133      211.91346      126648.54      126648.54      243523.66      6.8271104e-07  3.5155175e-08 -1.3810177e-08
       390   3.9            9.483021e-09   2.612998e-06  -3440.4685      4.1063519e-10  4.9770056      4.3102133      211.91346      126648.54      126648.54      243523.66      6.8213491e-07  3.659335e-08  -1.3310084e-08
       400   4              6.1753878e-09  3.0565565e-06 -3440.4685      2.6740756e-10  4.9770056      4.3102133      211.91346      126648.54      126648.54      243523.66      6.8192221e-07  3.7573872e-08 -1.279741e-08 
       410   4.1            3.621665e-09   1.6136831e-06 -3440.4685      1.5682587e-10  4.9770056      4.3102133      211.91346      126648.54      126648.54      243523.66      6.8149899e-07  3.8586052e-08 -1.2446215e-08
       420   4.2            1.8180267e-09  1.0258549e-06 -3440.4685      7.8724463e-11  4.9770056      4.3102133      211.91346      126648.54      126648.54      243523.66      6.8118205e-07  3.9793011e-08 -1.2225138e-08
       430   4.3            7.7011676e-10  8.6320252e-07 -3440.4685      3.3347711e-11  4.9770056      4.3102133      211.91346      126648.54      126648.54      243523.66      6.8090972e-07  4.1759616e-08 -1.1668743e-08
       440   1.1            1.4202117e-15  1.0715023e-07 -3440.4685      6.1498219e-17  4.9770056      4.3102133      211.91346      126648.54      126648.54      243523.66      6.8068152e-07  4.1287445e-08 -1.1776431e-08
       450   1.125          1.1010431e-14  7.6830765e-08 -3440.4685      4.7677533e-16  4.9770056      4.3102133      211.91346      126648.54      126648.54      243523.66      6.8043454e-07  4.1221043e-08 -1.1821727e-08
       460   1.53065        2.4044236e-14  7.2850678e-08 -3440.4685      1.0411671e-15  4.9770056      4.3102133      211.91346      126648.54      126648.54      243523.66      6.8055239e-07  4.1108353e-08 -1.1889043e-08
       470   4.0564187      7.6367854e-14  7.1477804e-08 -3440.4685      3.3068922e-15  4.9770056      4.3102133      211.91346      126648.54      126648.54      243523.66      6.8048227e-07  4.1273593e-08 -1.2050894e-08
       480   4.8            2.3105363e-13  6.6519855e-08 -3440.4685      1.0005119e-14  4.9770056      4.3102133      211.91346      126648.54      126648.54      243523.66      6.8044581e-07  4.1254107e-08 -1.1869175e-08
       490   4.9            4.6160071e-13  5.996795e-08  -3440.4685      1.9988303e-14  4.9770056      4.3102133      211.91346      126648.54      126648.54      243523.66      6.8024782e-07  4.1759297e-08 -1.1759786e-08
       500   5              7.4375078e-13  5.2229052e-08 -3440.4685      3.2206007e-14  4.9770056      4.3102133      211.91346      126648.54      126648.54      243523.66      6.8032779e-07  4.1858293e-08 -1.1634511e-08
       510   5.1            1.0351223e-12  5.6766984e-08 -3440.4685      4.4823018e-14  4.9770056      4.3102133      211.91346      126648.54      126648.54      243523.66      6.7998565e-07  4.2621654e-08 -1.1778162e-08
       520   5.2            7.4462554e-13  3.5802501e-08 -3440.4685      3.2243886e-14  4.9770056      4.3102133      211.91346      126648.54      126648.54      243523.66      6.7997908e-07  4.2653466e-08 -1.1380341e-08
       530   5.3            5.7374965e-13  2.9204336e-08 -3440.4685      2.4844593e-14  4.9770056      4.3102133      211.91346      126648.54      126648.54      243523.66      6.795748e-07   4.3407319e-08 -1.161164e-08 
       540   5.4            4.4347101e-13  2.4534632e-08 -3440.4685      1.9203248e-14  4.9770056      4.3102133      211.91346      126648.54      126648.54      243523.66      6.795975e-07   4.390214e-08  -1.1287322e-08
       550   5.5            3.4361337e-13  2.03414e-08   -3440.4685      1.4879197e-14  4.9770056      4.3102133      211.91346      126648.54      126648.54      243523.66      6.7928134e-07  4.462966e-08  -1.1235242e-08
       560   5.6            2.848431e-13   1.5476512e-08 -3440.4685      1.2334318e-14  4.9770056      4.3102133      211.91346      126648.54      126648.54      243523.66      6.7916771e-07  4.5071227e-08 -1.1137322e-08
       570   5.7            1.9456966e-13  1.7218297e-08 -3440.4685      8.4252844e-15  4.9770056      4.3102133      211.91346      126648.54      126648.54      243523.66      6.7887518e-07  4.6227949e-08 -1.1144424e-08
       573   5.73           1.7055505e-13  9.9273864e-09 -3440.4685      7.3853999e-15  4.9770056      4.3102133      211.91346      126648.54      126648.54      243523.66      6.7865246e-07  4.6097572e-08 -1.0888924e-08
Loop time of 3.9791 on 2 procs for 573 steps with 336 atoms

104.0% CPU use with 1 MPI tasks x 2 OpenMP threads

Minimization stats:
  Stopping criterion = force tolerance
  Energy initial, next-to-last, final = 
     -3300.85122431637  -3440.46846257324  -3440.46846257324
  Force two-norm initial, final = 74.417502 9.9273864e-09
  Force max component initial, final = 23.204054 2.8567491e-09
  Final line search alpha, max atom move = 0 0
  Iterations, force evaluations = 573 579

MPI task timing breakdown:
Section |  min time  |  avg time  |  max time  |%varavg| %total
---------------------------------------------------------------
Pair    | 3.9546     | 3.9546     | 3.9546     |   0.0 | 99.38
Neigh   | 0.0017964  | 0.0017964  | 0.0017964  |   0.0 |  0.05
Comm    | 0.015751   | 0.015751   | 0.015751   |   0.0 |  0.40
Output  | 0.0016784  | 0.0016784  | 0.0016784  |   0.0 |  0.04
Modify  | 0          | 0          | 0          |   0.0 |  0.00
Other   |            | 0.005256   |            |       |  0.13

Nlocal:            336 ave         336 max         336 min
Histogram: 1 0 0 0 0 0 0 0 0 0
Nghost:           7168 ave        7168 max        7168 min
Histogram: 1 0 0 0 0 0 0 0 0 0
Neighs:              0 ave           0 max           0 min
Histogram: 1 0 0 0 0 0 0 0 0 0
FullNghs:        41474 ave       41474 max       41474 min
Histogram: 1 0 0 0 0 0 0 0 0 0

Total # of neighbors = 41474
Ave neighs/atom = 123.43452
Neighbor list builds = 2
Dangerous builds = 0

#write_data      fire_${name}.data

fix             3 all box/relax z 0.0 vmax 0.001
min_style       cg
minimize        0.0 1.0e-8 1000 2000
Switching to 'neigh_modify every 1 delay 0 check yes' setting during minimization
WARNING: Energy due to 3 extra global DOFs will be included in minimizer energies
 (src/min.cpp:219)
Per MPI rank memory allocation (min/avg/max) = 5.642 | 5.642 | 5.642 Mbytes
   Step          Time           Temp          Fnorm          PotEng         KinEng           Lx             Ly             Lz            Pxx            Pyy            Pzz            Pxy            Pxz            Pyz      
       573   0.573          1.7055505e-13  9.9280652e-09 -3440.4685      7.3853999e-15  4.9770056      4.3102133      211.91346      126648.54      126648.54      243523.66      6.7870505e-07  4.5887451e-08 -1.0968668e-08
       580   0.58           1.7055505e-13  0.40996693    -3444.9959      7.3853999e-15  4.9770056      4.3102133      213.39685      114034.29      114034.29      212716.93      6.5343677e-07  4.5822594e-08 -1.1192977e-08
       590   0.59           1.7055505e-13  0.93070982    -3450.4465      7.3853999e-15  4.9770056      4.3102133      215.51599      96635.91       96635.91       172125.65      6.1962225e-07  4.58091e-08   -1.0995512e-08
       600   0.6            1.7055505e-13  1.3904361     -3454.7981      7.3853999e-15  4.9770056      4.3102133      217.63512      79909.214      79909.214      135188.92      5.8842169e-07  4.6282633e-08 -1.0632089e-08
       610   0.61           1.7055505e-13  1.8061547     -3458.1489      7.3853999e-15  4.9770056      4.3102133      219.75425      63805.692      63805.692      101503.03      5.6032721e-07  4.6521695e-08 -1.0459563e-08
       620   0.62           1.7055505e-13  2.1921291     -3460.5855      7.3853999e-15  4.9770056      4.3102133      221.87339      48292.895      48292.895      70677.765      5.3476217e-07  4.657372e-08  -1.0460371e-08
       630   0.63           1.7055505e-13  2.5597535     -3462.1834      7.3853999e-15  4.9770056      4.3102133      223.99252      33348.097      33348.097      42311.724      5.1201187e-07  4.6422751e-08 -1.0485328e-08
       640   0.64           1.7055505e-13  2.9145592     -3463.0077      7.3853999e-15  4.9770056      4.3102133      226.11166      18958.279      18958.279      16041.006      4.9182509e-07  4.6141291e-08 -1.0409365e-08
       650   0.65           1.7055505e-13  1.4436518     -3463.6464      7.3853999e-15  4.9770056      4.3102133      228.07875      3712.4184      3712.4184     -2347.2419      4.8782032e-07  3.2352593e-08 -7.349643e-09 
       660   0.66           1.7055505e-13  0.31551426    -3463.7345      7.3853999e-15  4.9770056      4.3102133      227.81121      5103.0401      5103.0401     -51.518308      4.953272e-07   2.6626723e-08 -5.9358188e-09
       670   0.67           1.7055505e-13  0.22063695    -3463.7395      7.3853999e-15  4.9770056      4.3102133      227.82889      5066.4526      5066.4526     -199.50809      4.9551018e-07  2.3983679e-08 -5.3816041e-09
       680   0.68           1.7055505e-13  0.16219557    -3463.7416      7.3853999e-15  4.9770056      4.3102133      227.84037      5055.542       5055.542      -236.79377      4.9839393e-07  1.7251142e-08 -3.8156876e-09
       690   0.69           1.7055505e-13  0.084516124   -3463.7437      7.3853999e-15  4.9770056      4.3102133      227.82351      5057.1737      5057.1737     -15.150772      5.0048334e-07  1.5726402e-08 -3.2128134e-09
       700   0.7            1.7055505e-13  0.040214029   -3463.7446      7.3853999e-15  4.9770056      4.3102133      227.82105      5106.2823      5106.2823     -28.53602       5.0028173e-07  1.5324991e-08 -3.0416662e-09
       710   0.71           1.7055505e-13  0.036822377   -3463.7449      7.3853999e-15  4.9770056      4.3102133      227.81735      5135.7256      5135.7256      4.6583703      5.0031292e-07  1.4688636e-08 -3.3546488e-09
       720   0.72           1.7055505e-13  0.02054889    -3463.7451      7.3853999e-15  4.9770056      4.3102133      227.82046      5109.4338      5109.4338     -16.768461      5.0069241e-07  1.4055043e-08 -2.4732772e-09
       730   0.73           1.7055505e-13  0.023975659   -3463.7451      7.3853999e-15  4.9770056      4.3102133      227.81878      5126.1507      5126.1507     -16.977056      5.0106262e-07  1.3444153e-08 -3.3020252e-09
       740   0.74           1.7055505e-13  0.029267721   -3463.7452      7.3853999e-15  4.9770056      4.3102133      227.82164      5104.6099      5104.6099     -27.574148      5.0161596e-07  1.2115405e-08 -1.4802062e-09
       750   0.75           1.7055505e-13  0.026792671   -3463.7453      7.3853999e-15  4.9770056      4.3102133      227.82224      5104.1711      5104.1711     -18.955315      5.0184431e-07  1.0760193e-08 -2.926647e-09 
       760   0.76           1.7055505e-13  0.022425167   -3463.7453      7.3853999e-15  4.9770056      4.3102133      227.81994      5116.9195      5116.9195     -14.701603      5.0218232e-07  1.0552567e-08 -1.3771873e-09
       770   0.77           1.7055505e-13  0.016946387   -3463.7453      7.3853999e-15  4.9770056      4.3102133      227.81985      5115.4492      5115.4492     -15.661105      5.0202893e-07  9.8732448e-09 -2.0651039e-09
       780   0.78           1.7055505e-13  0.014522251   -3463.7454      7.3853999e-15  4.9770056      4.3102133      227.82016      5114.8392      5114.8392     -10.801246      5.022737e-07   9.8979809e-09 -1.7259751e-09
       790   0.79           1.7055505e-13  0.013447027   -3463.7454      7.3853999e-15  4.9770056      4.3102133      227.81983      5121.209       5121.209      -9.3747438      5.0225804e-07  8.8630364e-09 -9.5130998e-10
       800   0.8            1.7055505e-13  0.018601221   -3463.7454      7.3853999e-15  4.9770056      4.3102133      227.8204       5106.5965      5106.5965     -11.100734      5.0294613e-07  9.7646495e-09 -3.8431739e-09
       810   0.81           1.7055505e-13  0.016955338   -3463.7454      7.3853999e-15  4.9770056      4.3102133      227.82087      5108.1159      5108.1159     -14.139026      5.0223995e-07  7.5186167e-09 -7.4321742e-11
       820   0.82           1.7055505e-13  0.013449343   -3463.7454      7.3853999e-15  4.9770056      4.3102133      227.82045      5117.4847      5117.4847     -13.097352      5.0317707e-07  8.1949343e-09 -1.0942278e-09
       830   0.83           1.7055505e-13  0.012489389   -3463.7454      7.3853999e-15  4.9770056      4.3102133      227.81936      5120.3397      5120.3397     -7.8662377      5.0204172e-07  7.9092042e-09 -2.2329066e-09
       840   0.84           1.7055505e-13  0.011278924   -3463.7454      7.3853999e-15  4.9770056      4.3102133      227.81991      5115.1925      5115.1925     -7.9151057      5.0302918e-07  7.6201769e-09 -3.1586875e-10
       850   0.85           1.7055505e-13  0.0096648528  -3463.7455      7.3853999e-15  4.9770056      4.3102133      227.81955      5120.0231      5120.0231     -6.903036       5.0245964e-07  7.3930186e-09 -1.7692373e-09
       860   0.86           1.7055505e-13  0.011346024   -3463.7455      7.3853999e-15  4.9770056      4.3102133      227.8193       5122.5472      5122.5472     -8.6232618      5.0178518e-07  8.7389623e-09 -1.8898036e-09
       870   0.87           1.7055505e-13  0.010158813   -3463.7455      7.3853999e-15  4.9770056      4.3102133      227.81953      5118.7408      5118.7408     -8.4314198      5.0299407e-07  7.1140928e-09 -4.9317605e-11
       880   0.88           1.7055505e-13  0.014122915   -3463.7455      7.3853999e-15  4.9770056      4.3102133      227.81999      5113.0949      5113.0949     -12.065723      5.0177756e-07  7.5250154e-09 -2.4570767e-09
       890   0.89           1.7055505e-13  0.011084189   -3463.7455      7.3853999e-15  4.9770056      4.3102133      227.81979      5118.1637      5118.1637     -10.07318       5.0283947e-07  7.5967053e-09 -9.9721553e-10
       900   0.9            1.7055505e-13  0.0096833236  -3463.7455      7.3853999e-15  4.9770056      4.3102133      227.8197       5116.8267      5116.8267     -7.9894376      5.0219297e-07  6.5516853e-09 -7.8510486e-10
       910   0.91           1.7055505e-13  0.0068311486  -3463.7455      7.3853999e-15  4.9770056      4.3102133      227.81953      5118.3382      5118.3382     -4.7585689      5.0237466e-07  7.2444659e-09 -1.3881542e-09
       920   0.92           1.7055505e-13  0.0045460103  -3463.7455      7.3853999e-15  4.9770056      4.3102133      227.81947      5118.4965      5118.4965     -3.2843928      5.026333e-07   7.2655054e-09 -7.733131e-10 
       930   0.93           1.7055505e-13  0.0026710063  -3463.7455      7.3853999e-15  4.9770056      4.3102133      227.8193       5119.5108      5119.5108     -1.8203289      5.0228558e-07  6.6238716e-09 -8.6091167e-10
       940   0.94           1.7055505e-13  0.0018793774  -3463.7455      7.3853999e-15  4.9770056      4.3102133      227.81931      5119.2465      5119.2465     -1.2510717      5.0247401e-07  7.4298966e-09 -1.3629144e-09
       950   0.95           1.7055505e-13  0.0017830601  -3463.7455      7.3853999e-15  4.9770056      4.3102133      227.81929      5119.5019      5119.5019     -1.1882574      5.0222489e-07  7.1064572e-09 -8.8693543e-10
       960   0.96           1.7055505e-13  0.0016447225  -3463.7455      7.3853999e-15  4.9770056      4.3102133      227.81926      5119.8263      5119.8263     -1.0723027      5.025234e-07   6.5736269e-09 -6.6126623e-10
       970   0.97           1.7055505e-13  0.0018175523  -3463.7455      7.3853999e-15  4.9770056      4.3102133      227.81927      5119.9648      5119.9648     -1.2076679      5.0227398e-07  7.3970496e-09 -1.5219323e-09
       980   0.98           1.7055505e-13  0.0020379057  -3463.7455      7.3853999e-15  4.9770056      4.3102133      227.81929      5119.5868      5119.5868     -1.4229836      5.0244633e-07  7.6401617e-09 -9.8598932e-10
       990   0.99           1.7055505e-13  0.001675664   -3463.7455      7.3853999e-15  4.9770056      4.3102133      227.81929      5119.8827      5119.8827     -1.1831754      5.0248738e-07  6.2982662e-09 -6.9967388e-10
      1000   1              1.7055505e-13  0.0013289013  -3463.7455      7.3853999e-15  4.9770056      4.3102133      227.81922      5120.1873      5120.1873     -0.91451199     5.0229871e-07  7.2952313e-09 -1.2408674e-09
      1010   1.01           1.7055505e-13  0.001353897   -3463.7455      7.3853999e-15  4.9770056      4.3102133      227.81924      5119.9877      5119.9877     -0.93710148     5.0237277e-07  7.1829648e-09 -9.3931062e-10
      1020   1.02           1.7055505e-13  0.0010443529  -3463.7455      7.3853999e-15  4.9770056      4.3102133      227.81914      5120.6523      5120.6523     -0.71731263     5.0233585e-07  6.8933764e-09 -6.2051123e-10
      1030   1.03           1.7055505e-13  0.001048849   -3463.7455      7.3853999e-15  4.9770056      4.3102133      227.81917      5120.4472      5120.4472     -0.70684684     5.0241019e-07  7.3416934e-09 -1.0418407e-09
      1040   1.04           1.7055505e-13  0.0011207749  -3463.7455      7.3853999e-15  4.9770056      4.3102133      227.81916      5120.3696      5120.3696     -0.76990149     5.0183186e-07  7.3837319e-09 -1.5916238e-09
      1050   1.05           1.7055505e-13  0.0011243161  -3463.7455      7.3853999e-15  4.9770056      4.3102133      227.81921      5120.3274      5120.3274     -0.79828731     5.0250174e-07  7.0513183e-09 -1.0126867e-09
      1060   1.06           1.7055505e-13  0.0012638032  -3463.7455      7.3853999e-15  4.9770056      4.3102133      227.8192       5120.2364      5120.2364     -0.88334275     5.0261489e-07  6.9721919e-09 -4.0529671e-10
      1070   1.07           1.7055505e-13  0.0011610268  -3463.7455      7.3853999e-15  4.9770056      4.3102133      227.81925      5119.8986      5119.8986     -0.82629855     5.0180931e-07  7.6267505e-09 -1.3613315e-09
      1080   1.08           1.7055505e-13  0.0012929098  -3463.7455      7.3853999e-15  4.9770056      4.3102133      227.81922      5120.5524      5120.5524     -0.93362346     5.0255713e-07  6.6791244e-09 -1.5745261e-09
      1090   1.09           1.7055505e-13  0.00097394823 -3463.7455      7.3853999e-15  4.9770056      4.3102133      227.81923      5120.2439      5120.2439     -0.70171603     5.0264373e-07  6.928697e-09  -5.0964632e-10
      1100   1.1            1.7055505e-13  0.00095653509 -3463.7455      7.3853999e-15  4.9770056      4.3102133      227.81921      5120.2769      5120.2769     -0.65975571     5.0218458e-07  8.0265708e-09 -9.1080291e-10
      1110   1.11           1.7055505e-13  0.00093796996 -3463.7455      7.3853999e-15  4.9770056      4.3102133      227.8192       5120.4584      5120.4584     -0.63045684     5.0180973e-07  6.6969048e-09 -1.1582558e-09
      1120   1.12           1.7055505e-13  0.00086168032 -3463.7455      7.3853999e-15  4.9770056      4.3102133      227.8192       5120.3078      5120.3078     -0.58365237     5.025207e-07   6.9092437e-09 -1.0566541e-09
      1130   1.13           1.7055505e-13  0.00081652508 -3463.7455      7.3853999e-15  4.9770056      4.3102133      227.81919      5120.2139      5120.2139     -0.53653988     5.0238045e-07  8.0106117e-09 -9.2884674e-10
      1140   1.14           1.7055505e-13  0.00068119946 -3463.7455      7.3853999e-15  4.9770056      4.3102133      227.81919      5120.4506      5120.4506     -0.47043117     5.0179271e-07  6.7861683e-09 -1.3138705e-09
      1150   1.15           1.7055505e-13  0.00073290675 -3463.7455      7.3853999e-15  4.9770056      4.3102133      227.81917      5120.5309      5120.5309     -0.49827874     5.0245394e-07  7.5248968e-09 -9.7218633e-10
      1160   1.16           1.7055505e-13  0.00078001965 -3463.7455      7.3853999e-15  4.9770056      4.3102133      227.81919      5120.3882      5120.3882     -0.54222343     5.0235461e-07  7.5014566e-09 -5.2942808e-10
      1170   1.17           1.7055505e-13  0.00076203534 -3463.7455      7.3853999e-15  4.9770056      4.3102133      227.81917      5120.6395      5120.6395     -0.52975591     5.0165766e-07  7.3336316e-09 -1.379858e-09 
      1180   1.18           1.7055505e-13  0.00076295524 -3463.7455      7.3853999e-15  4.9770056      4.3102133      227.81918      5120.5997      5120.5997     -0.54078724     5.0232754e-07  7.2488083e-09 -1.8813788e-09
      1190   1.19           1.7055505e-13  0.00093522756 -3463.7455      7.3853999e-15  4.9770056      4.3102133      227.8192       5120.3823      5120.3823     -0.68298759     5.018946e-07   6.8571598e-09  4.3240326e-10
      1200   1.2            1.7055505e-13  0.00069276434 -3463.7455      7.3853999e-15  4.9770056      4.3102133      227.8192       5120.3988      5120.3988     -0.49246696     5.0245642e-07  7.7843142e-09 -3.5688896e-10
      1210   1.21           1.7055505e-13  0.00061944798 -3463.7455      7.3853999e-15  4.9770056      4.3102133      227.81918      5120.4284      5120.4284     -0.43492807     5.0118869e-07  7.3056967e-09 -2.5147289e-09
      1220   1.22           1.7055505e-13  0.00057006124 -3463.7455      7.3853999e-15  4.9770056      4.3102133      227.81918      5120.4583      5120.4583     -0.39738578     5.0235688e-07  6.9842764e-09 -7.5105742e-10
      1230   1.23           1.7055505e-13  0.00043971188 -3463.7455      7.3853999e-15  4.9770056      4.3102133      227.81915      5120.6311      5120.6311     -0.28271993     5.0242769e-07  7.3143053e-09 -3.5668817e-12
      1240   1.24           1.7055505e-13  0.00041035726 -3463.7455      7.3853999e-15  4.9770056      4.3102133      227.81914      5120.6946      5120.6946     -0.23399454     5.0148496e-07  7.6741064e-09 -1.8480851e-09
      1250   1.25           1.7055505e-13  0.00027352231 -3463.7455      7.3853999e-15  4.9770056      4.3102133      227.81913      5120.7578      5120.7578     -0.14475772     5.0162686e-07  7.3800932e-09 -1.7348001e-09
      1260   1.26           1.7055505e-13  0.00026831061 -3463.7455      7.3853999e-15  4.9770056      4.3102133      227.81913      5120.761       5120.761      -0.11669901     5.0233063e-07  6.6911923e-09 -2.4576955e-10
      1270   1.27           1.7055505e-13  0.00023673973 -3463.7455      7.3853999e-15  4.9770056      4.3102133      227.81913      5120.79        5120.79       -0.087028399    5.024228e-07   7.4201662e-09 -1.1008219e-10
      1280   1.28           1.7055505e-13  0.00020820105 -3463.7455      7.3853999e-15  4.9770056      4.3102133      227.81913      5120.803       5120.803      -0.066583704    5.015393e-07   8.149413e-09  -1.4552543e-09
      1290   1.29           1.7055505e-13  0.00019202307 -3463.7455      7.3853999e-15  4.9770056      4.3102133      227.81913      5120.8159      5120.8159     -0.053845702    5.0128518e-07  7.190193e-09  -1.973354e-09 
      1300   1.3            1.7055505e-13  0.00019960791 -3463.7455      7.3853999e-15  4.9770056      4.3102133      227.81913      5120.7946      5120.7946     -0.049956559    5.0220092e-07  6.7866249e-09 -9.2770047e-10
      1310   1.31           1.7055505e-13  0.00016979872 -3463.7455      7.3853999e-15  4.9770056      4.3102133      227.81913      5120.7918      5120.7918     -0.039823196    5.0303826e-07  6.7996185e-09 -2.4330367e-10
      1320   1.32           1.7055505e-13  0.00016230075 -3463.7455      7.3853999e-15  4.9770056      4.3102133      227.81913      5120.8111      5120.8111     -0.034304672    5.0228158e-07  7.0803292e-09 -6.2354131e-10
      1330   1.33           1.7055505e-13  0.00017508779 -3463.7455      7.3853999e-15  4.9770056      4.3102133      227.81913      5120.8047      5120.8047     -0.035596783    5.0110298e-07  7.4842247e-09 -1.7620795e-09
      1340   1.34           1.7055505e-13  0.00015343668 -3463.7455      7.3853999e-15  4.9770056      4.3102133      227.81913      5120.7878      5120.7878     -0.030025728    5.0123058e-07  7.728138e-09  -2.0098054e-09
      1350   1.35           1.7055505e-13  0.00017805805 -3463.7455      7.3853999e-15  4.9770056      4.3102133      227.81913      5120.7817      5120.7817     -0.034544016    5.0219532e-07  7.2536144e-09 -1.0843706e-09
      1360   1.36           1.7055505e-13  0.00015634665 -3463.7455      7.3853999e-15  4.9770056      4.3102133      227.81913      5120.7908      5120.7908     -0.030265918    5.026957e-07   6.671065e-09  -1.8362192e-11
      1370   1.37           1.7055505e-13  0.00019599971 -3463.7455      7.3853999e-15  4.9770056      4.3102133      227.81913      5120.785       5120.785      -0.038430788    5.0266462e-07  6.2469328e-09  2.2553293e-10
      1380   1.38           1.7055505e-13  0.00020328798 -3463.7455      7.3853999e-15  4.9770056      4.3102133      227.81913      5120.7776      5120.7776     -0.041275288    5.021207e-07   6.1554857e-09  1.5526886e-10
      1390   1.39           1.7055505e-13  0.00020831292 -3463.7455      7.3853999e-15  4.9770056      4.3102133      227.81913      5120.7787      5120.7787     -0.044026233    5.0158901e-07  7.5903396e-09 -9.4652673e-10
      1400   1.4            1.7055505e-13  0.00020261683 -3463.7455      7.3853999e-15  4.9770056      4.3102133      227.81913      5120.7835      5120.7835     -0.044633497    5.0162133e-07  8.582426e-09  -2.4684509e-09
      1410   1.41           1.7055505e-13  0.00019556614 -3463.7455      7.3853999e-15  4.9770056      4.3102133      227.81913      5120.7784      5120.7784     -0.045003257    5.0174079e-07  8.5123621e-09 -2.1878768e-09
      1420   1.42           1.7055505e-13  0.00019467349 -3463.7455      7.3853999e-15  4.9770056      4.3102133      227.81913      5120.7629      5120.7629     -0.046874722    5.0183534e-07  7.4806576e-09 -1.2408314e-09
      1430   1.43           1.7055505e-13  0.00016410398 -3463.7455      7.3853999e-15  4.9770056      4.3102133      227.81913      5120.7543      5120.7543     -0.041147978    5.0185609e-07  6.5557961e-09 -4.6799037e-10
      1440   1.44           1.7055505e-13  0.0001517555  -3463.7455      7.3853999e-15  4.9770056      4.3102133      227.81913      5120.752       5120.752      -0.039434328    5.0182996e-07  5.8479325e-09 -9.0509797e-11
      1450   1.45           1.7055505e-13  0.00015458485 -3463.7455      7.3853999e-15  4.9770056      4.3102133      227.81913      5120.7532      5120.7532     -0.041833751    5.022673e-07   6.0728103e-09  1.1548713e-10
      1460   1.46           1.7055505e-13  0.00014560881 -3463.7455      7.3853999e-15  4.9770056      4.3102133      227.81914      5120.7583      5120.7583     -0.041188894    5.0259137e-07  6.8383628e-09 -1.0740702e-10
      1470   1.47           1.7055505e-13  0.00013524572 -3463.7455      7.3853999e-15  4.9770056      4.3102133      227.81914      5120.7617      5120.7617     -0.039905339    5.0219734e-07  7.3512669e-09 -8.6539819e-10
      1480   1.48           1.7055505e-13  0.00013641212 -3463.7455      7.3853999e-15  4.9770056      4.3102133      227.81913      5120.7587      5120.7587     -0.041981993    5.0193514e-07  7.3084824e-09 -1.7035716e-09
      1490   1.49           1.7055505e-13  0.00013876877 -3463.7455      7.3853999e-15  4.9770056      4.3102133      227.81913      5120.7501      5120.7501     -0.044622925    5.0137485e-07  7.4966904e-09 -2.1139276e-09
      1500   1.5            1.7055505e-13  0.00015445063 -3463.7455      7.3853999e-15  4.9770056      4.3102133      227.81914      5120.7373      5120.7373     -0.052172067    5.0146525e-07  7.3691741e-09 -1.4873653e-09
      1510   1.51           1.7055505e-13  0.00017004376 -3463.7455      7.3853999e-15  4.9770056      4.3102133      227.81914      5120.7285      5120.7285     -0.060538166    5.0159227e-07  6.8609834e-09  5.6087512e-11
      1520   1.52           1.7055505e-13  0.0001482144  -3463.7455      7.3853999e-15  4.9770056      4.3102133      227.81914      5120.7364      5120.7364     -0.055646918    5.0188549e-07  6.5334484e-09  8.0841896e-10
      1530   1.53           1.7055505e-13  0.00015337707 -3463.7455      7.3853999e-15  4.9770056      4.3102133      227.81914      5120.7433      5120.7433     -0.060801898    5.0222041e-07  6.421328e-09   8.8767305e-10
      1540   1.54           1.7055505e-13  0.00018040021 -3463.7455      7.3853999e-15  4.9770056      4.3102133      227.81914      5120.7459      5120.7459     -0.075479433    5.0235013e-07  6.782985e-09  -8.3800957e-10
      1550   1.55           1.7055505e-13  0.0001723305  -3463.7455      7.3853999e-15  4.9770056      4.3102133      227.81914      5120.7499      5120.7499     -0.076865617    5.0247868e-07  7.0317937e-09 -2.2398969e-09
      1560   1.56           1.7055505e-13  0.00018033604 -3463.7455      7.3853999e-15  4.9770056      4.3102133      227.81914      5120.7426      5120.7426     -0.086258537    5.0239395e-07  6.6744678e-09 -3.2199906e-09
      1570   1.57           1.7055505e-13  0.00018235892 -3463.7455      7.3853999e-15  4.9770056      4.3102133      227.81914      5120.7324      5120.7324     -0.093539168    5.0212104e-07  6.4754318e-09 -2.6002619e-09
      1573   1.573          1.7055505e-13  0.00017897853 -3463.7455      7.3853999e-15  4.9770056      4.3102133      227.81913      5120.8047      5120.8047      0.042042794    5.0184431e-07  6.5676253e-09 -2.3038099e-09
Loop time of 13.2672 on 2 procs for 1000 steps with 336 atoms

103.5% CPU use with 1 MPI tasks x 2 OpenMP threads

Minimization stats:
  Stopping criterion = max iterations
  Energy initial, next-to-last, final = 
     -3440.46846257324  -3463.74550777883  -3463.74550777886
  Force two-norm initial, final = 690.96529 0.00021508972
  Force max component initial, final = 690.96529 0.00011929072
  Final line search alpha, max atom move = 1 0.00011929072
  Iterations, force evaluations = 1000 1925

MPI task timing breakdown:
Section |  min time  |  avg time  |  max time  |%varavg| %total
---------------------------------------------------------------
Pair    | 13.081     | 13.081     | 13.081     |   0.0 | 98.60
Neigh   | 0.016298   | 0.016298   | 0.016298   |   0.0 |  0.12
Comm    | 0.044099   | 0.044099   | 0.044099   |   0.0 |  0.33
Output  | 0.001888   | 0.001888   | 0.001888   |   0.0 |  0.01
Modify  | 0          | 0          | 0          |   0.0 |  0.00
Other   |            | 0.1234     |            |       |  0.93

Nlocal:            336 ave         336 max         336 min
Histogram: 1 0 0 0 0 0 0 0 0 0
Nghost:           7112 ave        7112 max        7112 min
Histogram: 1 0 0 0 0 0 0 0 0 0
Neighs:              0 ave           0 max           0 min
Histogram: 1 0 0 0 0 0 0 0 0 0
FullNghs:        38138 ave       38138 max       38138 min
Histogram: 1 0 0 0 0 0 0 0 0 0

Total # of neighbors = 38138
Ave neighs/atom = 113.50595
Neighbor list builds = 19
Dangerous builds = 0
unfix           3
min_style       fire
minimize        0.0 1.0e-8 2000 4000
Switching to 'neigh_modify every 1 delay 0 check yes' setting during minimization
  Parameters for fire:
    dmax  delaystep dtgrow dtshrink alpha0 alphashrink tmax tmin   integrator   halfstepback   abcfire  
     0.1     20      1.1     0.5     0.25     0.99      10  0.02 eulerimplicit      yes          no     
Per MPI rank memory allocation (min/avg/max) = 4.519 | 4.519 | 4.519 Mbytes
   Step          Time           Temp          Fnorm          PotEng         KinEng           Lx             Ly             Lz            Pxx            Pyy            Pzz            Pxy            Pxz            Pyz      
      1573   1.573          0              0.00017897853 -3463.7455      0              4.9770056      4.3102133      227.81913      5120.8047      5120.8047      0.042042794    5.0201181e-07  6.586588e-09  -2.2574403e-09
      1580   1.58           1.3290493e-09  0.00017373654 -3463.7455      5.7550692e-11  4.9770056      4.3102133      227.81913      5120.8045      5120.8045      0.041809733    5.0204675e-07  6.5366153e-09 -2.3528002e-09
      1590   1.59           7.5487905e-09  0.00015410857 -3463.7455      3.2687885e-10  4.9770056      4.3102133      227.81913      5120.8038      5120.8038      0.040564267    5.019262e-07   6.6509021e-09 -2.2527284e-09
      1600   2.8344976      1.8908224e-08  0.00012096826 -3463.7455      8.1876672e-10  4.9770056      4.3102133      227.81913      5120.8027      5120.8027      0.037895575    5.018537e-07   6.8026051e-09 -1.9809006e-09
      1610   7.3979065      4.3096984e-08  6.7596582e-05 -3463.7455      1.866192e-09   4.9770056      4.3102133      227.81913      5120.8015      5120.8015      0.0328276      5.020022e-07   6.8233862e-09 -1.1613061e-09
      1620   16.2           5.6999312e-08  2.6286498e-05 -3463.7455      2.4681927e-09  4.9770056      4.3102133      227.81913      5120.8012      5120.8012      0.029219794    5.0201385e-07  6.8204364e-09 -1.0180654e-09
      1630   16.3           4.8519838e-08  1.5329025e-05 -3463.7455      2.1010132e-09  4.9770056      4.3102133      227.81913      5120.8048      5120.8048      0.016495723    5.020319e-07   6.8346855e-09 -6.9681726e-10
      1640   16.4           5.5925484e-08  9.7567249e-06 -3463.7455      2.4216936e-09  4.9770056      4.3102133      227.81913      5120.8044      5120.8044      0.015150051    5.0175761e-07  6.9322637e-09 -9.8178583e-10
      1650   16.5           5.2001065e-08  9.0634201e-06 -3463.7455      2.2517579e-09  4.9770056      4.3102133      227.81913      5120.8037      5120.8037      0.011411964    5.0189213e-07  6.9138822e-09 -8.8667994e-10
      1660   16.6           4.4306611e-08  6.2665414e-06 -3463.7455      1.9185714e-09  4.9770056      4.3102133      227.81913      5120.8028      5120.8028      0.012678157    5.0179925e-07  6.7895491e-09 -8.4139378e-10
      1670   16.7           3.5024838e-08  5.4701013e-06 -3463.7455      1.5166507e-09  4.9770056      4.3102133      227.81913      5120.8019      5120.8019      0.013961927    5.019955e-07   6.9210349e-09 -7.8577085e-10
      1680   16.8           3.2894029e-08  4.1573407e-06 -3463.7455      1.4243821e-09  4.9770056      4.3102133      227.81913      5120.8014      5120.8014      0.015599877    5.0186214e-07  6.6940982e-09 -8.2408684e-10
      1690   16.9           2.8975182e-08  4.5500193e-06 -3463.7455      1.2546876e-09  4.9770056      4.3102133      227.81913      5120.801       5120.801       0.016744701    5.017317e-07   6.6831623e-09 -7.8561541e-10
      1700   17             2.2850526e-08  3.5693212e-06 -3463.7455      9.8947686e-10  4.9770056      4.3102133      227.81913      5120.8008      5120.8008      0.017715385    5.0190611e-07  6.7134985e-09 -7.6789862e-10
      1710   17.1           1.7443879e-08  2.3241467e-06 -3463.7455      7.5535745e-10  4.9770056      4.3102133      227.81913      5120.8005      5120.8005      0.018538445    5.0182254e-07  6.8297326e-09 -7.9104944e-10
      1720   17.2           1.2689529e-08  1.7566787e-06 -3463.7455      5.4948386e-10  4.9770056      4.3102133      227.81913      5120.8002      5120.8002      0.019432031    5.0175208e-07  6.6983585e-09 -9.5979256e-10
      1730   17.3           8.583802e-09   1.4351981e-06 -3463.7455      3.7169707e-10  4.9770056      4.3102133      227.81913      5120.8001      5120.8001      0.020118968    5.0182051e-07  6.6819811e-09 -8.1914621e-10
      1740   17.4           5.1911078e-09  9.6700521e-07 -3463.7455      2.2478612e-10  4.9770056      4.3102133      227.81913      5120.7999      5120.7999      0.020646594    5.0147605e-07  6.9104071e-09 -6.2789908e-10
      1750   17.5           2.7062266e-09  6.6191972e-07 -3463.7455      1.1718543e-10  4.9770056      4.3102133      227.81913      5120.7998      5120.7998      0.021055713    5.0165017e-07  6.6343021e-09 -5.2433214e-10
      1760   8.8            5.8234898e-14  3.3904423e-07 -3463.7455      2.5216962e-15  4.9770056      4.3102133      227.81913      5120.7997      5120.7997      0.021253027    5.0178993e-07  6.6951779e-09 -6.2762686e-10
      1770   4.425          1.8199512e-15  5.576133e-08  -3463.7455      7.8807799e-17  4.9770056      4.3102133      227.81913      5120.7997      5120.7997      0.021232327    5.0168249e-07  6.7306466e-09 -7.006025e-10 
      1780   4.45           6.0295179e-15  4.1721257e-08 -3463.7455      2.6109108e-16  4.9770056      4.3102133      227.81913      5120.7997      5120.7997      0.021229554    5.0173315e-07  6.7234036e-09 -7.6510677e-10
      1790   7.9277355      1.2261666e-14  4.0108697e-08 -3463.7455      5.3095647e-16  4.9770056      4.3102133      227.81913      5120.7997      5120.7997      0.021230123    5.0172995e-07  6.6166153e-09 -7.8349627e-10
      1800   18             3.9224754e-14  3.9138585e-08 -3463.7455      1.6985161e-15  4.9770056      4.3102133      227.81913      5120.7997      5120.7997      0.021231395    5.0172122e-07  6.7092453e-09 -6.6434216e-10
      1810   18.1           9.8176186e-14  3.7038156e-08 -3463.7455      4.2512398e-15  4.9770056      4.3102133      227.81913      5120.7997      5120.7997      0.021234687    5.0176198e-07  6.6081713e-09 -7.1132136e-10
      1820   18.2           1.8241473e-13  3.4600417e-08 -3463.7455      7.8989498e-15  4.9770056      4.3102133      227.81913      5120.7997      5120.7997      0.021240054    5.0174393e-07  6.7309378e-09 -8.1416059e-10
      1830   18.3           2.8747559e-13  3.1849212e-08 -3463.7455      1.2448311e-14  4.9770056      4.3102133      227.81913      5120.7997      5120.7997      0.021245604    5.0161202e-07  6.8442047e-09 -6.3373243e-10
      1840   18.4           4.0763153e-13  2.8806059e-08 -3463.7455      1.7651321e-14  4.9770056      4.3102133      227.81913      5120.7997      5120.7997      0.021250908    5.0166123e-07  6.6684444e-09 -7.5628054e-10
      1850   18.5           5.3606744e-13  2.5449196e-08 -3463.7455      2.3212872e-14  4.9770056      4.3102133      227.81913      5120.7997      5120.7997      0.021255985    5.0164493e-07  6.6512105e-09 -7.9235889e-10
      1860   18.6           6.6503334e-13  2.1775018e-08 -3463.7455      2.8797373e-14  4.9770056      4.3102133      227.81913      5120.7997      5120.7997      0.021260974    5.0170142e-07  6.6996911e-09 -8.1771838e-10
      1870   18.7           6.409077e-13   1.8054398e-08 -3463.7455      2.775268e-14   4.9770056      4.3102133      227.81913      5120.7997      5120.7997      0.021265909    5.0172238e-07  6.6264607e-09 -8.324318e-10 
      1880   18.8           5.9339117e-13  1.9679832e-08 -3463.7455      2.5695112e-14  4.9770056      4.3102133      227.81913      5120.7997      5120.7997      0.021270471    5.0159659e-07  6.8151236e-09 -4.7296765e-10
      1890   18.9           4.6268129e-13  1.9232007e-08 -3463.7455      2.0035094e-14  4.9770056      4.3102133      227.81913      5120.7997      5120.7997      0.021275899    5.017844e-07   6.6097727e-09 -7.0245873e-10
      1900   19             3.5259707e-13  1.1812682e-08 -3463.7455      1.5268211e-14  4.9770056      4.3102133      227.81913      5120.7997      5120.7997      0.021279631    5.0147459e-07  6.681984e-09  -7.8990211e-10
      1905   19.05          2.8049619e-13  8.3865289e-09 -3463.7455      1.2146088e-14  4.9770056      4.3102133      227.81913      5120.7997      5120.7997      0.021280854    5.0161814e-07  6.7753055e-09 -8.1465195e-10
Loop time of 2.26648 on 2 procs for 332 steps with 336 atoms

103.4% CPU use with 1 MPI tasks x 2 OpenMP threads

Minimization stats:
  Stopping criterion = force tolerance
  Energy initial, next-to-last, final = 
     -3463.74550777886  -3463.74550778603  -3463.74550778603
  Force two-norm initial, final = 0.00017897853 8.3865289e-09
  Force max component initial, final = 2.7531103e-05 2.9183911e-09
  Final line search alpha, max atom move = 0 0
  Iterations, force evaluations = 332 335

MPI task timing breakdown:
Section |  min time  |  avg time  |  max time  |%varavg| %total
---------------------------------------------------------------
Pair    | 2.2554     | 2.2554     | 2.2554     |   0.0 | 99.51
Neigh   | 0          | 0          | 0          |   0.0 |  0.00
Comm    | 0.00772    | 0.00772    | 0.00772    |   0.0 |  0.34
Output  | 0.00057486 | 0.00057486 | 0.00057486 |   0.0 |  0.03
Modify  | 0          | 0          | 0          |   0.0 |  0.00
Other   |            | 0.002809   |            |       |  0.12

Nlocal:            336 ave         336 max         336 min
Histogram: 1 0 0 0 0 0 0 0 0 0
Nghost:           7112 ave        7112 max        7112 min
Histogram: 1 0 0 0 0 0 0 0 0 0
Neighs:              0 ave           0 max           0 min
Histogram: 1 0 0 0 0 0 0 0 0 0
FullNghs:        38168 ave       38168 max       38168 min
Histogram: 1 0 0 0 0 0 0 0 0 0

Total # of neighbors = 38168
Ave neighs/atom = 113.59524
Neighbor list builds = 0
Dangerous builds = 0

fix             3 all box/relax z 0.0 vmax 0.001
min_style       cg
minimize        0.0 1.0e-8 1000 2000
Switching to 'neigh_modify every 1 delay 0 check yes' setting during minimization
WARNING: Energy due to 3 extra global DOFs will be included in minimizer energies
 (src/min.cpp:219)
Per MPI rank memory allocation (min/avg/max) = 5.644 | 5.644 | 5.644 Mbytes
   Step          Time           Temp          Fnorm          PotEng         KinEng           Lx             Ly             Lz            Pxx            Pyy            Pzz            Pxy            Pxz            Pyz      
      1905   1.905          2.8049619e-13  8.3865467e-09 -3463.7455      1.2146088e-14  4.9770056      4.3102133      227.81913      5120.7997      5120.7997      0.021280854    5.0170025e-07  6.5519746e-09 -9.0052116e-10
      1910   1.91           2.8049619e-13  6.6190928e-08 -3463.7455      1.2146088e-14  4.9770056      4.3102133      227.81913      5120.7876      5120.7876     -7.8498963e-06  5.0170811e-07  6.5593995e-09 -4.8627979e-10
      1920   1.92           2.8049619e-13  2.7376307e-08 -3463.7455      1.2146088e-14  4.9770056      4.3102133      227.81913      5120.7876      5120.7876      6.4638242e-08  5.0156339e-07  6.6859876e-09 -6.6538856e-10
      1930   1.93           2.8049619e-13  2.8438102e-08 -3463.7455      1.2146088e-14  4.9770056      4.3102133      227.81913      5120.7876      5120.7876      6.6338692e-06  5.0167753e-07  6.5568699e-09 -8.2504324e-10
      1940   1.94           2.8049619e-13  3.8055183e-08 -3463.7455      1.2146088e-14  4.9770056      4.3102133      227.81913      5120.7876      5120.7876      5.0906032e-05  5.0166618e-07  6.5059689e-09 -6.0713545e-10
      1950   1.95           2.8049619e-13  3.0385271e-08 -3463.7455      1.2146088e-14  4.9770056      4.3102133      227.81913      5120.7876      5120.7876      2.5557233e-05  5.0177479e-07  6.3574335e-09 -8.048248e-10 
      1960   1.96           2.8049619e-13  1.9551566e-08 -3463.7455      1.2146088e-14  4.9770056      4.3102133      227.81913      5120.7876      5120.7876      9.5996666e-06  5.0128241e-07  6.0435473e-09 -9.0881053e-10
      1970   1.97           2.8049619e-13  1.376975e-08  -3463.7455      1.2146088e-14  4.9770056      4.3102133      227.81913      5120.7876      5120.7876      9.7393809e-07  5.0188252e-07  6.1769052e-09 -7.911396e-10 
      1973   1.973          2.8049619e-13  8.8735687e-09 -3463.7455      1.2146088e-14  4.9770056      4.3102133      227.81913      5120.7876      5120.7876     -3.558344e-09   5.0146061e-07  6.8854786e-09 -8.0655365e-10
Loop time of 0.927161 on 2 procs for 68 steps with 336 atoms

101.0% CPU use with 1 MPI tasks x 2 OpenMP threads

Minimization stats:
  Stopping criterion = force tolerance
  Energy initial, next-to-last, final = 
     -3463.74550778603  -3463.74550778603  -3463.74550778603
  Force two-norm initial, final = 6.4913614e-05 8.8735754e-09
  Force max component initial, final = 6.4913613e-05 3.7911604e-09
  Final line search alpha, max atom move = 1 3.7911604e-09
  Iterations, force evaluations = 68 136

MPI task timing breakdown:
Section |  min time  |  avg time  |  max time  |%varavg| %total
---------------------------------------------------------------
Pair    | 0.91538    | 0.91538    | 0.91538    |   0.0 | 98.73
Neigh   | 0          | 0          | 0          |   0.0 |  0.00
Comm    | 0.0029755  | 0.0029755  | 0.0029755  |   0.0 |  0.32
Output  | 0.00013295 | 0.00013295 | 0.00013295 |   0.0 |  0.01
Modify  | 0          | 0          | 0          |   0.0 |  0.00
Other   |            | 0.00867    |            |       |  0.94

Nlocal:            336 ave         336 max         336 min
Histogram: 1 0 0 0 0 0 0 0 0 0
Nghost:           7112 ave        7112 max        7112 min
Histogram: 1 0 0 0 0 0 0 0 0 0
Neighs:              0 ave           0 max           0 min
Histogram: 1 0 0 0 0 0 0 0 0 0
FullNghs:        38168 ave       38168 max       38168 min
Histogram: 1 0 0 0 0 0 0 0 0 0

Total # of neighbors = 38168
Ave neighs/atom = 113.59524
Neighbor list builds = 0
Dangerous builds = 0
unfix           3
min_style       fire
minimize        0.0 1.0e-8 2000 4000
Switching to 'neigh_modify every 1 delay 0 check yes' setting during minimization
  Parameters for fire:
    dmax  delaystep dtgrow dtshrink alpha0 alphashrink tmax tmin   integrator   halfstepback   abcfire  
     0.1     20      1.1     0.5     0.25     0.99      10  0.02 eulerimplicit      yes          no     
Per MPI rank memory allocation (min/avg/max) = 4.519 | 4.519 | 4.519 Mbytes
   Step          Time           Temp          Fnorm          PotEng         KinEng           Lx             Ly             Lz            Pxx            Pyy            Pzz            Pxy            Pxz            Pyz      
      1973   1.973          0              8.8730533e-09 -3463.7455      0              4.9770056      4.3102133      227.81913      5120.7876      5120.7876     -4.0019037e-09  5.0144692e-07  6.8941411e-09 -8.1325067e-10
      1974   1.974          8.6914215e-20  8.8554967e-09 -3463.7455      3.7635723e-21  4.9770056      4.3102133      227.81913      5120.7876      5120.7876     -3.657153e-09   5.0146643e-07  6.9391275e-09 -8.0526156e-10
Loop time of 0.0204959 on 2 procs for 1 steps with 336 atoms

100.0% CPU use with 1 MPI tasks x 2 OpenMP threads

Minimization stats:
  Stopping criterion = force tolerance
  Energy initial, next-to-last, final = 
     -3463.74550778603  -3463.74550778603  -3463.74550778603
  Force two-norm initial, final = 8.8730533e-09 8.8554967e-09
  Force max component initial, final = 3.7904079e-09 3.7801135e-09
  Final line search alpha, max atom move = 0 0
  Iterations, force evaluations = 1 2

MPI task timing breakdown:
Section |  min time  |  avg time  |  max time  |%varavg| %total
---------------------------------------------------------------
Pair    | 0.020392   | 0.020392   | 0.020392   |   0.0 | 99.49
Neigh   | 0          | 0          | 0          |   0.0 |  0.00
Comm    | 6.5197e-05 | 6.5197e-05 | 6.5197e-05 |   0.0 |  0.32
Output  | 0          | 0          | 0          |   0.0 |  0.00
Modify  | 0          | 0          | 0          |   0.0 |  0.00
Other   |            | 3.862e-05  |            |       |  0.19

Nlocal:            336 ave         336 max         336 min
Histogram: 1 0 0 0 0 0 0 0 0 0
Nghost:           7112 ave        7112 max        7112 min
Histogram: 1 0 0 0 0 0 0 0 0 0
Neighs:              0 ave           0 max           0 min
Histogram: 1 0 0 0 0 0 0 0 0 0
FullNghs:        38168 ave       38168 max       38168 min
Histogram: 1 0 0 0 0 0 0 0 0 0

Total # of neighbors = 38168
Ave neighs/atom = 113.59524
Neighbor list builds = 0
Dangerous builds = 0

fix             3 all box/relax z 0.0 vmax 0.001
min_style       cg
minimize        0.0 1.0e-8 1000 2000
Switching to 'neigh_modify every 1 delay 0 check yes' setting during minimization
WARNING: Energy due to 3 extra global DOFs will be included in minimizer energies
 (src/min.cpp:219)
Per MPI rank memory allocation (min/avg/max) = 5.644 | 5.644 | 5.644 Mbytes
   Step          Time           Temp          Fnorm          PotEng         KinEng           Lx             Ly             Lz            Pxx            Pyy            Pzz            Pxy            Pxz            Pyz      
      1974   1.974          8.6914215e-20  8.8550667e-09 -3463.7455      3.7635723e-21  4.9770056      4.3102133      227.81913      5120.7876      5120.7876     -3.3624843e-09  5.0148594e-07  6.9696281e-09 -7.5936517e-10
      1975   1.975          8.6914215e-20  5.8077932e-09 -3463.7455      3.7635723e-21  4.9770056      4.3102133      227.81913      5120.7876      5120.7876      2.1442936e-06  5.0144955e-07  6.903677e-09  -8.6016617e-10
Loop time of 0.0200359 on 2 procs for 1 steps with 336 atoms

102.3% CPU use with 1 MPI tasks x 2 OpenMP threads

Minimization stats:
  Stopping criterion = force tolerance
  Energy initial, next-to-last, final = 
     -3463.74550778603  -3463.74550778603  -3463.74550778603
  Force two-norm initial, final = 8.8550726e-09 8.7471452e-09
  Force max component initial, final = 3.7790801e-09 6.5408017e-09
  Final line search alpha, max atom move = 1 6.5408017e-09
  Iterations, force evaluations = 1 2

MPI task timing breakdown:
Section |  min time  |  avg time  |  max time  |%varavg| %total
---------------------------------------------------------------
Pair    | 0.019759   | 0.019759   | 0.019759   |   0.0 | 98.62
Neigh   | 0          | 0          | 0          |   0.0 |  0.00
Comm    | 0.00011695 | 0.00011695 | 0.00011695 |   0.0 |  0.58
Output  | 0          | 0          | 0          |   0.0 |  0.00
Modify  | 0          | 0          | 0          |   0.0 |  0.00
Other   |            | 0.0001601  |            |       |  0.80

Nlocal:            336 ave         336 max         336 min
Histogram: 1 0 0 0 0 0 0 0 0 0
Nghost:           7112 ave        7112 max        7112 min
Histogram: 1 0 0 0 0 0 0 0 0 0
Neighs:              0 ave           0 max           0 min
Histogram: 1 0 0 0 0 0 0 0 0 0
FullNghs:        38168 ave       38168 max       38168 min
Histogram: 1 0 0 0 0 0 0 0 0 0

Total # of neighbors = 38168
Ave neighs/atom = 113.59524
Neighbor list builds = 0
Dangerous builds = 0
unfix           3
min_style       fire
minimize        0.0 1.0e-8 2000 4000
Switching to 'neigh_modify every 1 delay 0 check yes' setting during minimization
  Parameters for fire:
    dmax  delaystep dtgrow dtshrink alpha0 alphashrink tmax tmin   integrator   halfstepback   abcfire  
     0.1     20      1.1     0.5     0.25     0.99      10  0.02 eulerimplicit      yes          no     
Per MPI rank memory allocation (min/avg/max) = 4.519 | 4.519 | 4.519 Mbytes
   Step          Time           Temp          Fnorm          PotEng         KinEng           Lx             Ly             Lz            Pxx            Pyy            Pzz            Pxy            Pxz            Pyz      
      1975   1.975          0              5.8081464e-09 -3463.7455      0              4.9770056      4.3102133      227.81913      5120.7876      5120.7876      2.1445173e-06  5.0144285e-07  6.9120119e-09 -1.071377e-09 
      1976   1.976          3.5520893e-20  5.7991599e-09 -3463.7455      1.538131e-21   4.9770056      4.3102133      227.81913      5120.7876      5120.7876      2.1441061e-06  5.0145712e-07  6.9246598e-09 -1.0838975e-09
Loop time of 0.0206008 on 2 procs for 1 steps with 336 atoms

101.1% CPU use with 1 MPI tasks x 2 OpenMP threads

Minimization stats:
  Stopping criterion = force tolerance
  Energy initial, next-to-last, final = 
     -3463.74550778603  -3463.74550778603  -3463.74550778603
  Force two-norm initial, final = 5.8081464e-09 5.7991599e-09
  Force max component initial, final = 2.7293746e-09 2.7218759e-09
  Final line search alpha, max atom move = 0 0
  Iterations, force evaluations = 1 2

MPI task timing breakdown:
Section |  min time  |  avg time  |  max time  |%varavg| %total
---------------------------------------------------------------
Pair    | 0.020498   | 0.020498   | 0.020498   |   0.0 | 99.50
Neigh   | 0          | 0          | 0          |   0.0 |  0.00
Comm    | 6.7255e-05 | 6.7255e-05 | 6.7255e-05 |   0.0 |  0.33
Output  | 0          | 0          | 0          |   0.0 |  0.00
Modify  | 0          | 0          | 0          |   0.0 |  0.00
Other   |            | 3.598e-05  |            |       |  0.17

Nlocal:            336 ave         336 max         336 min
Histogram: 1 0 0 0 0 0 0 0 0 0
Nghost:           7112 ave        7112 max        7112 min
Histogram: 1 0 0 0 0 0 0 0 0 0
Neighs:              0 ave           0 max           0 min
Histogram: 1 0 0 0 0 0 0 0 0 0
FullNghs:        38168 ave       38168 max       38168 min
Histogram: 1 0 0 0 0 0 0 0 0 0

Total # of neighbors = 38168
Ave neighs/atom = 113.59524
Neighbor list builds = 0
Dangerous builds = 0

fix             3 all box/relax z 0.0 vmax 0.001
min_style       cg
minimize        0.0 1.0e-8 1000 2000
Switching to 'neigh_modify every 1 delay 0 check yes' setting during minimization
WARNING: Energy due to 3 extra global DOFs will be included in minimizer energies
 (src/min.cpp:219)
Per MPI rank memory allocation (min/avg/max) = 5.644 | 5.644 | 5.644 Mbytes
   Step          Time           Temp          Fnorm          PotEng         KinEng           Lx             Ly             Lz            Pxx            Pyy            Pzz            Pxy            Pxz            Pyz      
      1976   1.976          3.5520893e-20  5.798855e-09  -3463.7455      1.538131e-21   4.9770056      4.3102133      227.81913      5120.7876      5120.7876      2.1441131e-06  5.0144052e-07  6.8571983e-09 -8.8293239e-10
      1977   1.977          3.5520893e-20  5.7688382e-09 -3463.7455      1.538131e-21   4.9770056      4.3102133      227.81913      5120.7876      5120.7876     -1.6767383e-06  5.0143499e-07  6.8626942e-09 -8.9727274e-10
Loop time of 0.0204265 on 2 procs for 1 steps with 336 atoms

105.9% CPU use with 1 MPI tasks x 2 OpenMP threads

Minimization stats:
  Stopping criterion = force tolerance
  Energy initial, next-to-last, final = 
     -3463.74550778603  -3463.74550778603  -3463.74550778603
  Force two-norm initial, final = 8.740801e-09 7.7096476e-09
  Force max component initial, final = 6.540251e-09 5.1146039e-09
  Final line search alpha, max atom move = 1 5.1146039e-09
  Iterations, force evaluations = 1 2

MPI task timing breakdown:
Section |  min time  |  avg time  |  max time  |%varavg| %total
---------------------------------------------------------------
Pair    | 0.020172   | 0.020172   | 0.020172   |   0.0 | 98.75
Neigh   | 0          | 0          | 0          |   0.0 |  0.00
Comm    | 9.4888e-05 | 9.4888e-05 | 9.4888e-05 |   0.0 |  0.46
Output  | 0          | 0          | 0          |   0.0 |  0.00
Modify  | 0          | 0          | 0          |   0.0 |  0.00
Other   |            | 0.0001596  |            |       |  0.78

Nlocal:            336 ave         336 max         336 min
Histogram: 1 0 0 0 0 0 0 0 0 0
Nghost:           7112 ave        7112 max        7112 min
Histogram: 1 0 0 0 0 0 0 0 0 0
Neighs:              0 ave           0 max           0 min
Histogram: 1 0 0 0 0 0 0 0 0 0
FullNghs:        38168 ave       38168 max       38168 min
Histogram: 1 0 0 0 0 0 0 0 0 0

Total # of neighbors = 38168
Ave neighs/atom = 113.59524
Neighbor list builds = 0
Dangerous builds = 0
unfix           3
min_style       fire
minimize        0.0 1.0e-8 2000 4000
Switching to 'neigh_modify every 1 delay 0 check yes' setting during minimization
  Parameters for fire:
    dmax  delaystep dtgrow dtshrink alpha0 alphashrink tmax tmin   integrator   halfstepback   abcfire  
     0.1     20      1.1     0.5     0.25     0.99      10  0.02 eulerimplicit      yes          no     
Per MPI rank memory allocation (min/avg/max) = 4.519 | 4.519 | 4.519 Mbytes
   Step          Time           Temp          Fnorm          PotEng         KinEng           Lx             Ly             Lz            Pxx            Pyy            Pzz            Pxy            Pxz            Pyz      
      1977   1.977          0              5.7689691e-09 -3463.7455      0              4.9770056      4.3102133      227.81913      5120.7876      5120.7876     -1.6766498e-06  5.0139801e-07  6.8300099e-09 -9.0187694e-10
      1978   1.978          3.5118673e-20  5.7600589e-09 -3463.7455      1.520714e-21   4.9770056      4.3102133      227.81913      5120.7876      5120.7876     -1.6765146e-06  5.0140995e-07  6.8658607e-09 -8.6571669e-10
Loop time of 0.0198524 on 2 procs for 1 steps with 336 atoms

102.5% CPU use with 1 MPI tasks x 2 OpenMP threads

Minimization stats:
  Stopping criterion = force tolerance
  Energy initial, next-to-last, final = 
     -3463.74550778603  -3463.74550778603  -3463.74550778603
  Force two-norm initial, final = 5.7689691e-09 5.7600589e-09
  Force max component initial, final = 2.6898566e-09 2.6823656e-09
  Final line search alpha, max atom move = 0 0
  Iterations, force evaluations = 1 2

MPI task timing breakdown:
Section |  min time  |  avg time  |  max time  |%varavg| %total
---------------------------------------------------------------
Pair    | 0.019692   | 0.019692   | 0.019692   |   0.0 | 99.19
Neigh   | 0          | 0          | 0          |   0.0 |  0.00
Comm    | 0.00011679 | 0.00011679 | 0.00011679 |   0.0 |  0.59
Output  | 0          | 0          | 0          |   0.0 |  0.00
Modify  | 0          | 0          | 0          |   0.0 |  0.00
Other   |            | 4.397e-05  |            |       |  0.22

Nlocal:            336 ave         336 max         336 min
Histogram: 1 0 0 0 0 0 0 0 0 0
Nghost:           7112 ave        7112 max        7112 min
Histogram: 1 0 0 0 0 0 0 0 0 0
Neighs:              0 ave           0 max           0 min
Histogram: 1 0 0 0 0 0 0 0 0 0
FullNghs:        38168 ave       38168 max       38168 min
Histogram: 1 0 0 0 0 0 0 0 0 0

Total # of neighbors = 38168
Ave neighs/atom = 113.59524
Neighbor list builds = 0
Dangerous builds = 0

fix             3 all box/relax z 0.0 vmax 0.001
min_style       cg
minimize        0.0 1.0e-8 1000 2000
Switching to 'neigh_modify every 1 delay 0 check yes' setting during minimization
WARNING: Energy due to 3 extra global DOFs will be included in minimizer energies
 (src/min.cpp:219)
Per MPI rank memory allocation (min/avg/max) = 5.644 | 5.644 | 5.644 Mbytes
   Step          Time           Temp          Fnorm          PotEng         KinEng           Lx             Ly             Lz            Pxx            Pyy            Pzz            Pxy            Pxz            Pyz      
      1978   1.978          3.5118673e-20  5.7595502e-09 -3463.7455      1.520714e-21   4.9770056      4.3102133      227.81913      5120.7876      5120.7876     -1.6766008e-06  5.0139539e-07  6.8228943e-09 -8.8891057e-10
      1979   1.979          3.5118673e-20  5.7378033e-09 -3463.7455      1.520714e-21   4.9770056      4.3102133      227.81913      5120.7876      5120.7876      2.1178992e-06  5.0138898e-07  6.7450961e-09 -9.3710906e-10
Loop time of 0.0198344 on 2 procs for 1 steps with 336 atoms

104.5% CPU use with 1 MPI tasks x 2 OpenMP threads

Minimization stats:
  Stopping criterion = force tolerance
  Energy initial, next-to-last, final = 
     -3463.74550778603  -3463.74550778603  -3463.74550778603
  Force two-norm initial, final = 7.7024219e-09 8.6404707e-09
  Force max component initial, final = 5.1141846e-09 6.4602901e-09
  Final line search alpha, max atom move = 1 6.4602901e-09
  Iterations, force evaluations = 1 2

MPI task timing breakdown:
Section |  min time  |  avg time  |  max time  |%varavg| %total
---------------------------------------------------------------
Pair    | 0.01963    | 0.01963    | 0.01963    |   0.0 | 98.97
Neigh   | 0          | 0          | 0          |   0.0 |  0.00
Comm    | 5.596e-05  | 5.596e-05  | 5.596e-05  |   0.0 |  0.28
Output  | 0          | 0          | 0          |   0.0 |  0.00
Modify  | 0          | 0          | 0          |   0.0 |  0.00
Other   |            | 0.000148   |            |       |  0.75

Nlocal:            336 ave         336 max         336 min
Histogram: 1 0 0 0 0 0 0 0 0 0
Nghost:           7112 ave        7112 max        7112 min
Histogram: 1 0 0 0 0 0 0 0 0 0
Neighs:              0 ave           0 max           0 min
Histogram: 1 0 0 0 0 0 0 0 0 0
FullNghs:        38168 ave       38168 max       38168 min
Histogram: 1 0 0 0 0 0 0 0 0 0

Total # of neighbors = 38168
Ave neighs/atom = 113.59524
Neighbor list builds = 0
Dangerous builds = 0
unfix           3
min_style       fire
minimize        0.0 1.0e-8 2000 4000
Switching to 'neigh_modify every 1 delay 0 check yes' setting during minimization
  Parameters for fire:
    dmax  delaystep dtgrow dtshrink alpha0 alphashrink tmax tmin   integrator   halfstepback   abcfire  
     0.1     20      1.1     0.5     0.25     0.99      10  0.02 eulerimplicit      yes          no     
Per MPI rank memory allocation (min/avg/max) = 4.519 | 4.519 | 4.519 Mbytes
   Step          Time           Temp          Fnorm          PotEng         KinEng           Lx             Ly             Lz            Pxx            Pyy            Pzz            Pxy            Pxz            Pyz      
      1979   1.979          0              5.7377462e-09 -3463.7455      0              4.9770056      4.3102133      227.81913      5120.7876      5120.7876      2.1179179e-06  5.013983e-07   6.6830395e-09 -9.3584427e-10
      1980   1.98           3.4644308e-20  5.7289872e-09 -3463.7455      1.500173e-21   4.9770056      4.3102133      227.81913      5120.7876      5120.7876      2.1176838e-06  5.014344e-07   6.7327939e-09 -8.6545281e-10
Loop time of 0.0202919 on 2 procs for 1 steps with 336 atoms

104.5% CPU use with 1 MPI tasks x 2 OpenMP threads

Minimization stats:
  Stopping criterion = force tolerance
  Energy initial, next-to-last, final = 
     -3463.74550778603  -3463.74550778603  -3463.74550778603
  Force two-norm initial, final = 5.7377462e-09 5.7289872e-09
  Force max component initial, final = 2.6639618e-09 2.6565195e-09
  Final line search alpha, max atom move = 0 0
  Iterations, force evaluations = 1 2

MPI task timing breakdown:
Section |  min time  |  avg time  |  max time  |%varavg| %total
---------------------------------------------------------------
Pair    | 0.020195   | 0.020195   | 0.020195   |   0.0 | 99.52
Neigh   | 0          | 0          | 0          |   0.0 |  0.00
Comm    | 6.105e-05  | 6.105e-05  | 6.105e-05  |   0.0 |  0.30
Output  | 0          | 0          | 0          |   0.0 |  0.00
Modify  | 0          | 0          | 0          |   0.0 |  0.00
Other   |            | 3.546e-05  |            |       |  0.17

Nlocal:            336 ave         336 max         336 min
Histogram: 1 0 0 0 0 0 0 0 0 0
Nghost:           7112 ave        7112 max        7112 min
Histogram: 1 0 0 0 0 0 0 0 0 0
Neighs:              0 ave           0 max           0 min
Histogram: 1 0 0 0 0 0 0 0 0 0
FullNghs:        38168 ave       38168 max       38168 min
Histogram: 1 0 0 0 0 0 0 0 0 0

Total # of neighbors = 38168
Ave neighs/atom = 113.59524
Neighbor list builds = 0
Dangerous builds = 0

fix             3 all box/relax z 0.0 vmax 0.001
min_style       cg
minimize        0.0 1.0e-8 1000 2000
Switching to 'neigh_modify every 1 delay 0 check yes' setting during minimization
WARNING: Energy due to 3 extra global DOFs will be included in minimizer energies
 (src/min.cpp:219)
Per MPI rank memory allocation (min/avg/max) = 5.644 | 5.644 | 5.644 Mbytes
   Step          Time           Temp          Fnorm          PotEng         KinEng           Lx             Ly             Lz            Pxx            Pyy            Pzz            Pxy            Pxz            Pyz      
      1980   1.98           3.4644308e-20  5.7290037e-09 -3463.7455      1.500173e-21   4.9770056      4.3102133      227.81913      5120.7876      5120.7876      2.117834e-06   5.0144139e-07  6.77334e-09   -8.9488874e-10
      1981   1.981          3.4644308e-20  5.7000251e-09 -3463.7455      1.500173e-21   4.9770056      4.3102133      227.81913      5120.7876      5120.7876     -1.6570164e-06  5.0139247e-07  6.8157969e-09 -7.8896488e-10
Loop time of 0.020414 on 2 procs for 1 steps with 336 atoms

106.0% CPU use with 1 MPI tasks x 2 OpenMP threads

Minimization stats:
  Stopping criterion = force tolerance
  Energy initial, next-to-last, final = 
     -3463.74550778603  -3463.74550778603  -3463.74550778603
  Force two-norm initial, final = 8.634481e-09 7.6182484e-09
  Force max component initial, final = 6.4600911e-09 5.0544458e-09
  Final line search alpha, max atom move = 1 5.0544458e-09
  Iterations, force evaluations = 1 2

MPI task timing breakdown:
Section |  min time  |  avg time  |  max time  |%varavg| %total
---------------------------------------------------------------
Pair    | 0.02017    | 0.02017    | 0.02017    |   0.0 | 98.80
Neigh   | 0          | 0          | 0          |   0.0 |  0.00
Comm    | 8.9866e-05 | 8.9866e-05 | 8.9866e-05 |   0.0 |  0.44
Output  | 0          | 0          | 0          |   0.0 |  0.00
Modify  | 0          | 0          | 0          |   0.0 |  0.00
Other   |            | 0.0001545  |            |       |  0.76

Nlocal:            336 ave         336 max         336 min
Histogram: 1 0 0 0 0 0 0 0 0 0
Nghost:           7112 ave        7112 max        7112 min
Histogram: 1 0 0 0 0 0 0 0 0 0
Neighs:              0 ave           0 max           0 min
Histogram: 1 0 0 0 0 0 0 0 0 0
FullNghs:        38168 ave       38168 max       38168 min
Histogram: 1 0 0 0 0 0 0 0 0 0

Total # of neighbors = 38168
Ave neighs/atom = 113.59524
Neighbor list builds = 0
Dangerous builds = 0
unfix           3
min_style       fire
minimize        0.0 1.0e-8 2000 4000
Switching to 'neigh_modify every 1 delay 0 check yes' setting during minimization
  Parameters for fire:
    dmax  delaystep dtgrow dtshrink alpha0 alphashrink tmax tmin   integrator   halfstepback   abcfire  
     0.1     20      1.1     0.5     0.25     0.99      10  0.02 eulerimplicit      yes          no     
Per MPI rank memory allocation (min/avg/max) = 4.519 | 4.519 | 4.519 Mbytes
   Step          Time           Temp          Fnorm          PotEng         KinEng           Lx             Ly             Lz            Pxx            Pyy            Pzz            Pxy            Pxz            Pyz      
      1981   1.981          0              5.7006331e-09 -3463.7455      0              4.9770056      4.3102133      227.81913      5120.7876      5120.7876     -1.6569209e-06  5.014542e-07   6.8412201e-09 -8.6573489e-10
      1982   1.982          3.426758e-20   5.6919365e-09 -3463.7455      1.4838598e-21  4.9770056      4.3102133      227.81913      5120.7876      5120.7876     -1.6568604e-06  5.0148623e-07  6.8155967e-09 -8.6174034e-10
Loop time of 0.0208779 on 2 procs for 1 steps with 336 atoms

105.3% CPU use with 1 MPI tasks x 2 OpenMP threads

Minimization stats:
  Stopping criterion = force tolerance
  Energy initial, next-to-last, final = 
     -3463.74550778603  -3463.74550778603  -3463.74550778603
  Force two-norm initial, final = 5.7006331e-09 5.6919365e-09
  Force max component initial, final = 2.6261275e-09 2.6186875e-09
  Final line search alpha, max atom move = 0 0
  Iterations, force evaluations = 1 2

MPI task timing breakdown:
Section |  min time  |  avg time  |  max time  |%varavg| %total
---------------------------------------------------------------
Pair    | 0.020698   | 0.020698   | 0.020698   |   0.0 | 99.14
Neigh   | 0          | 0          | 0          |   0.0 |  0.00
Comm    | 0.00013568 | 0.00013568 | 0.00013568 |   0.0 |  0.65
Output  | 0          | 0          | 0          |   0.0 |  0.00
Modify  | 0          | 0          | 0          |   0.0 |  0.00
Other   |            | 4.373e-05  |            |       |  0.21

Nlocal:            336 ave         336 max         336 min
Histogram: 1 0 0 0 0 0 0 0 0 0
Nghost:           7112 ave        7112 max        7112 min
Histogram: 1 0 0 0 0 0 0 0 0 0
Neighs:              0 ave           0 max           0 min
Histogram: 1 0 0 0 0 0 0 0 0 0
FullNghs:        38168 ave       38168 max       38168 min
Histogram: 1 0 0 0 0 0 0 0 0 0

Total # of neighbors = 38168
Ave neighs/atom = 113.59524
Neighbor list builds = 0
Dangerous builds = 0


write_data      fire_cg_${name}.data
write_data      fire_cg_lmps.data
System init for write_data ...

write_data      bi_minimised.data
System init for write_data ...

print """- step: $(step)
  atoms: $(atoms)
  temp: $(temp)
  press: $(press)
  pe: $(pe)
  ke: $(ke)
  etotal: $(etotal)
  vol: $(vol)
  avecx: $(avecx)
  avecy: $(avecy)
  avecz: $(avecz)
  bvecx: $(bvecx)
  bvecy: $(bvecy)
  bvecz: $(bvecz)
  cvecx: $(cvecx)
  cvecy: $(cvecy)
  cvecz: $(cvecz)
  lx: $(lx)
  ly: $(ly)
  lz: $(lz)
  cella: $(cella)
  cellb: $(cellb)
  cellc: $(cellc)
  cellalpha: $(cellalpha)
  cellbeta: $(cellbeta)
  cellgamma: $(cellgamma)
  pxx: $(pxx)
  pyy: $(pyy)
  pzz: $(pzz)
  pxy: $(pxy)
  pyz: $(pyz)
  pxz: $(pxz)
  xlo: $(xlo)
  xhi: $(xhi)
  ylo: $(ylo)
  yhi: $(yhi)
  zlo: $(zlo)
  zhi: $(zhi)
  xy: $(xy)
  xz: $(xz)
  yz: $(yz)
""" file bi_minimised.data.yaml screen yes universe no
- step: 1982
  atoms: 336
  temp: 3.426758003386424953e-20
  press: 3413.8583723093506705
  pe: -3463.7455077860308847
  ke: 1.4838598419320933403e-21
  etotal: -3463.7455077860308847
  vol: 4887.1659072456268404
  avecx: 4.9770056176543331361
  avecy: 0
  avecz: 0
  bvecx: -2.4885028088300003013
  bvecy: 4.3102132996662358977
  bvecz: 0
  cvecx: 0
  cvecy: 0
  cvecz: 227.81912994342658862
  lx: 4.9770056176543331361
  ly: 4.3102132996662358977
  lz: 227.81912994342658862
  cella: 4.9770056176543331361
  cellb: 4.9770056176555090843
  cellc: 227.81912994342658862
  cellalpha: 90
  cellbeta: 90
  cellgamma: 120.00000000002985701
  pxx: 5120.7875592433683778
  pyy: 5120.7875593415437834
  pzz: -1.6568603600155830341e-06
  pxy: 5.0148623312933697415e-07
  pyz: -8.6174033618729432013e-10
  pxz: 6.8155967213459028722e-09
  xlo: -0.019038925427171102256
  xhi: 4.9579666922271616869
  ylo: -0.016488193083117452103
  yhi: 4.293725106583118567
  zlo: -7.9528367428131208072
  zhi: 219.86629320061345538
  xy: -2.4885028088300003013
  xz: 0
  yz: 0

[GRACE:debug, proc #0]: Data preparation timer: 1.49552e+06 mcs, graph execution time: 2.33267e+07 mcs, data preparation time fraction: 6.02 %
Total wall time: 0:00:29
