
thermo          10
thermo_style    custom step time temp fnorm pe ke lx ly lz pxx pyy pzz pxy pxz pyz

timestep        0.001

min_style       fire
minimize        0.0 1.0e-8 2000 4000

CITE-CITE-CITE-CITE-CITE-CITE-CITE-CITE-CITE-CITE-CITE-CITE-CITE

Your simulation uses code contributions which should be cited:

- Type Label Framework: https://doi.org/10.1021/acs.jpcb.3c08419

@Article{Gissinger24,
 author = {Jacob R. Gissinger, Ilia Nikiforov, Yaser Afshar, Brendon Waters, Moon-ki Choi, Daniel S. Karls, Alexander Stukowski, Wonpil Im, Hendrik Heinz, Axel Kohlmeyer, and Ellad B. Tadmor},
 title = {Type Label Framework for Bonded Force Fields in LAMMPS},
 journal = {J. Phys. Chem. B},
 year =    2024,
 volume =  128,
 number =  13,
 pages =   {3282–-3297}
}

CITE-CITE-CITE-CITE-CITE-CITE-CITE-CITE-CITE-CITE-CITE-CITE-CITE

Switching to 'neigh_modify every 1 delay 0 check yes' setting during minimization
Neighbor list info ...
  update: every = 1 steps, delay = 0 steps, check = yes
  max neighbors/atom: 2000, page size: 100000
  master list distance cutoff = 7.4
  ghost atom cutoff = 7.4
  binsize = 3.7, bins = 3 2 56
  1 neighbor lists, perpetual/occasional/extra = 1 0 0
  (1) pair grace, perpetual
      attributes: full, newton on
      pair build: full/bin/atomonly
      stencil: full/bin/3d
      bin: standard
  Parameters for fire:
    dmax  delaystep dtgrow dtshrink alpha0 alphashrink tmax tmin   integrator   halfstepback   abcfire  
     0.1     20      1.1     0.5     0.25     0.99      10  0.02 eulerimplicit      yes          no     
[GRACE] Atoms padding: new num. of atoms = 322 (incl. 0.932% fake atoms)
[GRACE] Neighbours padding: extending new num. of neighbours = 21392 (incl. 0.991% fake neighbours)
Per MPI rank memory allocation (min/avg/max) = 4.5 | 4.5 | 4.5 Mbytes
   Step          Time           Temp          Fnorm          PotEng         KinEng           Lx             Ly             Lz            Pxx            Pyy            Pzz            Pxy            Pxz            Pyz      
         0   0              0              61.854408     -3168.7804      0              4.9770056      4.3102133      204.31755      154968.65      154968.65      311039.47      8.9197783e-07  1.9934548e-10 -1.0973741e-10
        10   0.01           438.37503      52.357737     -3194.4083      18.019286      4.9770056      4.3102133      204.31755      139020.22      139020.22      303575.52      8.5005469e-07  4.9356362e-10  2.7929052e-10
        20   0.02           1277.9537      32.381622     -3240.9346      52.529936      4.9770056      4.3102133      204.31755      108115.53      108115.53      291748.54      7.7414188e-07  4.0641373e-10  3.4995388e-11
        30   0.070738431    2180.6319      5.3065387     -3280.3211      89.634277      4.9770056      4.3102133      204.31755      86752.873      86752.873      265769.89      6.7945495e-07 -6.2268077e-11 -9.3412917e-11
        40   0.057062334    2.0320451      3.7116213     -3281.5423      0.083526657    4.9770056      4.3102133      204.31755      90673.398      90673.398      191249.03      6.4856192e-07 -3.4895892e-11 -8.0060979e-11
        50   0.071327918    8.803841       2.5358664     -3281.8132      0.36187947     4.9770056      4.3102133      204.31755      91161.514      91161.514      190508.4       6.4805148e-07 -8.5960627e-11  6.2205549e-11
        60   0.16679752     15.799261      0.70162558    -3282.0695      0.64942432     4.9770056      4.3102133      204.31755      92471.401      92471.401      189099.78      6.4585848e-07 -4.6828298e-11 -8.6800261e-11
        70   0.50473478     4.9815043      0.32350168    -3282.1822      0.20476337     4.9770056      4.3102133      204.31755      92821.495      92821.495      188110.67      6.4172497e-07 -1.8509711e-11  2.5832656e-11
        80   0.8            1.9595301      0.12269289    -3282.2367      0.08054595     4.9770056      4.3102133      204.31755      92783.574      92783.574      187967.99      6.4183773e-07 -8.5102113e-11  9.9360546e-11
        90   0.9            1.2473518      0.059100582   -3282.2565      0.051272053    4.9770056      4.3102133      204.31755      92691.525      92691.525      187980.41      6.4188199e-07  1.1705609e-10 -5.5102077e-11
       100   1              0.72244451     0.069039288   -3282.2664      0.029695884    4.9770056      4.3102133      204.31755      92654.115      92654.115      187974.61      6.4188116e-07 -7.9724406e-12  4.3629137e-11
       110   1.1            0.40409982     0.029513306   -3282.2718      0.016610412    4.9770056      4.3102133      204.31755      92640.372      92640.372      187958.91      6.4183448e-07  5.0810544e-11 -1.9890996e-11
       120   1.2            0.30592494     0.035613758   -3282.2753      0.012574961    4.9770056      4.3102133      204.31755      92636.895      92636.895      187946.15      6.4176745e-07  3.1366413e-11 -5.9066989e-11
       130   1.3            0.26773505     0.027867781   -3282.278       0.011005176    4.9770056      4.3102133      204.31755      92633.567      92633.567      187940.59      6.4167199e-07  1.2722246e-10 -1.4533513e-11
       140   1.4            0.22523315     0.01405049    -3282.2799      0.0092581468   4.9770056      4.3102133      204.31755      92629.847      92629.847      187937.86      6.4174772e-07  6.3267394e-11  8.9735009e-11
       150   1.5            0.17424825     0.011517479   -3282.2813      0.0071624267   4.9770056      4.3102133      204.31755      92626.541      92626.541      187935.59      6.4174155e-07  8.0030073e-11  2.497283e-11 
       160   1.6            0.13145831     0.013501549   -3282.2821      0.0054035577   4.9770056      4.3102133      204.31755      92623.839      92623.839      187934.8       6.4168245e-07  1.6132729e-10  2.1669759e-10
       170   1.7            0.052458197    0.017432192   -3282.2825      0.0021562798   4.9770056      4.3102133      204.31755      92621.642      92621.642      187933.48      6.4134456e-07  5.6580268e-10  3.975697e-10 
       180   1.8            0.019233892    0.0086311059  -3282.2827      0.00079060386  4.9770056      4.3102133      204.31755      92621.187      92621.187      187932.5       6.4140439e-07  3.319288e-10   3.1045156e-10
       190   1.9            0.0079043912   0.016884658   -3282.2828      0.00032490784  4.9770056      4.3102133      204.31755      92619.017      92619.017      187933.1       6.4156418e-07 -3.5886139e-11  3.0537552e-10
       200   2              0.0035855572   0.010075761   -3282.2828      0.00014738335  4.9770056      4.3102133      204.31755      92618.826      92618.826      187932.83      6.4160728e-07 -1.5298647e-10 -6.5207811e-12
       210   2.1            0.0017699743   0.0074133847  -3282.2828      7.2754311e-05  4.9770056      4.3102133      204.31755      92619.014      92619.014      187933.78      6.4171762e-07  1.0751713e-10 -2.1805344e-10
       220   2.2            0.00096256077  0.0034872243  -3282.2828      3.9565797e-05  4.9770056      4.3102133      204.31755      92618.326      92618.326      187934.12      6.4188935e-07 -2.3163216e-11 -1.5252479e-10
       230   2.3            0.00056348047  0.0037933258  -3282.2828      2.316171e-05   4.9770056      4.3102133      204.31755      92618.147      92618.147      187933.55      6.4183578e-07 -1.3641739e-10  6.7686825e-11
       240   2.4            0.00034651463  0.0030295426  -3282.2828      1.4243389e-05  4.9770056      4.3102133      204.31755      92618.106      92618.106      187933.57      6.4141518e-07  2.7411636e-10  1.1173809e-10
       250   2.5            0.00021876276  0.0029380174  -3282.2828      8.9921835e-06  4.9770056      4.3102133      204.31755      92617.911      92617.911      187933.91      6.415125e-07  -6.6338752e-11 -1.5108682e-10
       260   2.6            0.00014494234  0.0017946135  -3282.2828      5.957815e-06   4.9770056      4.3102133      204.31755      92617.757      92617.757      187934.15      6.4173092e-07  7.0540873e-11  2.1321719e-10
       270   2.7            9.7991645e-05  0.0015823095  -3282.2828      4.0279197e-06  4.9770056      4.3102133      204.31755      92617.728      92617.728      187934.18      6.4170559e-07  7.7593563e-11 -8.2542553e-11
       280   0.7            1.7978304e-09  0.00022014691 -3282.2828      7.3899325e-11  4.9770056      4.3102133      204.31755      92617.816      92617.816      187934.09      6.4168977e-07  7.5485052e-12 -1.2317051e-10
       290   0.725          2.5805267e-08  0.00017522873 -3282.2828      1.0607184e-09  4.9770056      4.3102133      204.31755      92617.819      92617.819      187934.1       6.4164691e-07  2.9463601e-11 -5.7506661e-11
       300   0.9075         7.2195216e-08  0.00016677462 -3282.2828      2.9675646e-09  4.9770056      4.3102133      204.31755      92617.82       92617.82       187934.1       6.4168043e-07  4.756382e-11   1.4569439e-11
       310   2.432282       2.6037392e-07  0.00016431303 -3282.2828      1.0702599e-08  4.9770056      4.3102133      204.31755      92617.816      92617.816      187934.11      6.4162573e-07 -2.4512573e-11  1.0677486e-10
       320   3.2            9.678597e-07   0.00015689636 -3282.2828      3.9783608e-08  4.9770056      4.3102133      204.31755      92617.812      92617.812      187934.11      6.4171744e-07  3.9285284e-11  1.2065418e-10
       330   3.3            2.1469063e-06  0.00014606159 -3282.2828      8.8247996e-08  4.9770056      4.3102133      204.31755      92617.804      92617.804      187934.12      6.4166882e-07 -1.0292064e-10  2.5406655e-11
       340   3.4            3.714028e-06   0.00013176435 -3282.2828      1.526641e-07   4.9770056      4.3102133      204.31755      92617.794      92617.794      187934.13      6.4158952e-07  9.61849e-11   -3.948831e-11 
       350   3.5            5.5230559e-06  0.00011398957 -3282.2828      2.270237e-07   4.9770056      4.3102133      204.31755      92617.78       92617.78       187934.14      6.4157922e-07 -1.0590125e-12  7.7115275e-11
       360   3.6            6.7648886e-06  0.00019146926 -3282.2828      2.7806889e-07  4.9770056      4.3102133      204.31755      92617.768      92617.768      187934.16      6.4181354e-07 -2.7113961e-11 -1.3937456e-10
       370   3.7            4.422621e-06   8.1326422e-05 -3282.2828      1.8179062e-07  4.9770056      4.3102133      204.31755      92617.751      92617.751      187934.17      6.4167954e-07  2.7928687e-11  1.7653682e-10
       380   3.8            3.5412078e-06  8.2318561e-05 -3282.2828      1.4556038e-07  4.9770056      4.3102133      204.31755      92617.737      92617.737      187934.18      6.4176614e-07  4.7631177e-11 -1.8391251e-10
       390   3.9            2.4521783e-06  4.6270874e-05 -3282.2828      1.0079612e-07  4.9770056      4.3102133      204.31755      92617.727      92617.727      187934.19      6.4160738e-07 -1.192575e-11  -1.5698478e-10
       400   4              1.9751363e-06  6.8824674e-05 -3282.2828      8.1187438e-08  4.9770056      4.3102133      204.31755      92617.719      92617.719      187934.2       6.41678e-07   -1.2679124e-10  1.9951636e-10
       410   4.1            1.4583702e-06  5.5478352e-05 -3282.2828      5.9945906e-08  4.9770056      4.3102133      204.31755      92617.709      92617.709      187934.21      6.416056e-07   1.1322894e-10  1.3676266e-10
       420   4.2            9.6342752e-07  3.1030461e-05 -3282.2828      3.9601425e-08  4.9770056      4.3102133      204.31755      92617.702      92617.702      187934.22      6.4168384e-07 -7.4839027e-11 -1.3507819e-11
       430   4.3            3.985942e-07   3.0671479e-05 -3282.2828      1.6384105e-08  4.9770056      4.3102133      204.31755      92617.698      92617.698      187934.22      6.4176663e-07 -1.7783952e-10  2.0624869e-10
       440   2.2            5.0527725e-11  2.4816599e-05 -3282.2828      2.0769283e-12  4.9770056      4.3102133      204.31755      92617.696      92617.696      187934.22      6.4153198e-07  1.5332395e-10  6.6759631e-11
       450   1.125          2.6438744e-12  4.3236751e-06 -3282.2828      1.0867573e-13  4.9770056      4.3102133      204.31755      92617.696      92617.696      187934.22      6.415379e-07   8.4981561e-11 -3.5266942e-11
       460   1.15           1.6243085e-11  3.3558596e-06 -3282.2828      6.6766757e-13  4.9770056      4.3102133      204.31755      92617.696      92617.696      187934.22      6.4158384e-07  6.4771047e-11  5.4138209e-11
       470   1.7203175      4.4118411e-11  3.2920248e-06 -3282.2828      1.8134752e-12  4.9770056      4.3102133      204.31755      92617.696      92617.696      187934.22      6.4159188e-07  4.1719698e-11 -6.2904207e-11
       480   4.556998       1.6405899e-10  3.2608179e-06 -3282.2828      6.7435998e-12  4.9770056      4.3102133      204.31755      92617.696      92617.696      187934.22      6.4165251e-07 -1.7694347e-11 -1.4934676e-11
       490   4.9            5.0523264e-10  3.0898109e-06 -3282.2828      2.0767449e-11  4.9770056      4.3102133      204.31755      92617.696      92617.696      187934.22      6.4157889e-07  7.9543391e-11  1.0226993e-11
       500   5              1.0277385e-09  2.8565548e-06 -3282.2828      4.224491e-11   4.9770056      4.3102133      204.31755      92617.695      92617.695      187934.22      6.4158449e-07 -5.9414089e-11  5.8561742e-11
       510   5.1            1.6919405e-09  2.5502826e-06 -3282.2828      6.9546753e-11  4.9770056      4.3102133      204.31755      92617.695      92617.695      187934.22      6.4167248e-07 -4.4073498e-11 -5.4097542e-11
       520   5.2            2.4339341e-09  2.1773854e-06 -3282.2828      1.0004619e-10  4.9770056      4.3102133      204.31755      92617.695      92617.695      187934.23      6.4180859e-07 -4.8294269e-11  1.3538593e-10
       530   5.3            2.4227366e-09  1.8318132e-06 -3282.2828      9.9585924e-11  4.9770056      4.3102133      204.31755      92617.695      92617.695      187934.23      6.4154196e-07  1.7694359e-11  3.1208789e-11
       540   5.4            1.8212663e-09  1.5832712e-06 -3282.2828      7.4862651e-11  4.9770056      4.3102133      204.31755      92617.694      92617.694      187934.23      6.4157053e-07  5.7709613e-11  3.4536417e-11
       550   5.5            1.3865657e-09  1.2070754e-06 -3282.2828      5.6994403e-11  4.9770056      4.3102133      204.31755      92617.694      92617.694      187934.23      6.4150974e-07 -4.8699633e-12 -1.3047522e-10
       560   5.6            1.0874513e-09  1.2171624e-06 -3282.2828      4.4699386e-11  4.9770056      4.3102133      204.31755      92617.694      92617.694      187934.23      6.4160673e-07  1.1363269e-12 -1.6172497e-10
       570   5.7            7.1995697e-10  1.394595e-06  -3282.2828      2.9593634e-11  4.9770056      4.3102133      204.31755      92617.694      92617.694      187934.23      6.416405e-07   4.2450254e-11  1.0117447e-10
       580   5.8            4.1401922e-10  8.5261657e-07 -3282.2828      1.7018147e-11  4.9770056      4.3102133      204.31755      92617.693      92617.693      187934.23      6.4155081e-07  1.9366366e-10 -8.981107e-11 
       590   5.9            2.233519e-10   3.6690775e-07 -3282.2828      9.1808185e-12  4.9770056      4.3102133      204.31755      92617.693      92617.693      187934.23      6.4169618e-07 -2.9966748e-10  7.7230141e-11
       600   6              1.0654428e-10  5.765013e-07  -3282.2828      4.3794735e-12  4.9770056      4.3102133      204.31755      92617.693      92617.693      187934.23      6.4140666e-07  3.3034834e-11 -1.3838927e-10
       610   3.05           4.4907015e-14  4.6797612e-07 -3282.2828      1.8458906e-15  4.9770056      4.3102133      204.31755      92617.693      92617.693      187934.23      6.4170884e-07 -1.6355095e-10 -7.1994886e-11
       620   1.55           1.707302e-15   9.8127773e-08 -3282.2828      7.0178182e-17  4.9770056      4.3102133      204.31755      92617.693      92617.693      187934.23      6.416017e-07  -4.7320201e-11  8.8877564e-12
       630   1.575          8.4195793e-15  7.8785366e-08 -3282.2828      3.460845e-16   4.9770056      4.3102133      204.31755      92617.693      92617.693      187934.23      6.4168473e-07 -7.4024054e-11  1.9723514e-11
       640   2.576816       2.3191044e-14  7.6902815e-08 -3282.2828      9.5326153e-16  4.9770056      4.3102133      204.31755      92617.693      92617.693      187934.23      6.4165348e-07  1.6314512e-11 -3.5307526e-11
       650   6.5            9.5929531e-14  7.6042154e-08 -3282.2828      3.9431571e-15  4.9770056      4.3102133      204.31755      92617.693      92617.693      187934.23      6.4153482e-07  8.4981562e-11  5.4057039e-11
       660   6.6            2.8681406e-13  7.1945803e-08 -3282.2828      1.1789413e-14  4.9770056      4.3102133      204.31755      92617.693      92617.693      187934.23      6.4146713e-07  1.1160425e-10  2.5283435e-11
       670   6.7            5.7642166e-13  6.6413769e-08 -3282.2828      2.3693655e-14  4.9770056      4.3102133      204.31755      92617.693      92617.693      187934.23      6.4161899e-07 -3.2791357e-11 -6.1240293e-11
       680   6.8            9.4190098e-13  5.9181931e-08 -3282.2828      3.8716582e-14  4.9770056      4.3102133      204.31755      92617.693      92617.693      187934.23      6.4159504e-07  1.2580841e-11  1.6639193e-12
       690   6.9            1.3256579e-12  6.2897639e-08 -3282.2828      5.4490803e-14  4.9770056      4.3102133      204.31755      92617.693      92617.693      187934.23      6.4160771e-07 -2.1346847e-11  1.2349517e-10
       700   7              1.1013419e-12  4.8757586e-08 -3282.2828      4.5270359e-14  4.9770056      4.3102133      204.31755      92617.693      92617.693      187934.23      6.4165008e-07 -1.8010896e-10 -1.4906269e-10
       710   7.1            1.0445804e-12  3.3501693e-08 -3282.2828      4.293719e-14   4.9770056      4.3102133      204.31755      92617.693      92617.693      187934.23      6.4162126e-07 -5.4462879e-11 -1.0860107e-10
       720   7.2            8.0066303e-13  2.5201658e-08 -3282.2828      3.2911035e-14  4.9770056      4.3102133      204.31755      92617.693      92617.693      187934.23      6.4142605e-07  1.5535311e-10  1.4407093e-10
       730   7.3            6.0001801e-13  4.2270134e-08 -3282.2828      2.4663576e-14  4.9770056      4.3102133      204.31755      92617.693      92617.693      187934.23      6.4150397e-07  1.1850342e-10  1.1675834e-10
       740   7.4            4.3053713e-13  1.8621841e-08 -3282.2828      1.7697111e-14  4.9770056      4.3102133      204.31755      92617.693      92617.693      187934.23      6.4169447e-07 -1.9658581e-10  1.0227005e-11
       750   7.5            2.7452327e-13  2.4761252e-08 -3282.2828      1.1284204e-14  4.9770056      4.3102133      204.31755      92617.693      92617.693      187934.23      6.4159626e-07 -1.2597076e-10 -2.9532513e-10
       760   7.6            1.1042575e-13  2.5389746e-08 -3282.2828      4.5390203e-15  4.9770056      4.3102133      204.31755      92617.693      92617.693      187934.23      6.4177174e-07 -7.7757724e-11 -3.8748995e-10
       764   7.64           7.1341555e-14  7.0612445e-09 -3282.2828      2.9324751e-15  4.9770056      4.3102133      204.31755      92617.693      92617.693      187934.23      6.413401e-07   8.7660064e-11  5.5440932e-10
Loop time of 4.93358 on 2 procs for 764 steps with 319 atoms

103.6% CPU use with 1 MPI tasks x 2 OpenMP threads

Minimization stats:
  Stopping criterion = force tolerance
  Energy initial, next-to-last, final = 
     -3168.78040456094  -3282.28283612002  -3282.28283612002
  Force two-norm initial, final = 61.854408 7.0612445e-09
  Force max component initial, final = 4.629666 2.3761197e-09
  Final line search alpha, max atom move = 0 0
  Iterations, force evaluations = 764 772

MPI task timing breakdown:
Section |  min time  |  avg time  |  max time  |%varavg| %total
---------------------------------------------------------------
Pair    | 4.9084     | 4.9084     | 4.9084     |   0.0 | 99.49
Neigh   | 0          | 0          | 0          |   0.0 |  0.00
Comm    | 0.01663    | 0.01663    | 0.01663    |   0.0 |  0.34
Output  | 0.0024875  | 0.0024875  | 0.0024875  |   0.0 |  0.05
Modify  | 0          | 0          | 0          |   0.0 |  0.00
Other   |            | 0.006085   |            |       |  0.12

Nlocal:            319 ave         319 max         319 min
Histogram: 1 0 0 0 0 0 0 0 0 0
Nghost:           6847 ave        6847 max        6847 min
Histogram: 1 0 0 0 0 0 0 0 0 0
Neighs:              0 ave           0 max           0 min
Histogram: 1 0 0 0 0 0 0 0 0 0
FullNghs:        38568 ave       38568 max       38568 min
Histogram: 1 0 0 0 0 0 0 0 0 0

Total # of neighbors = 38568
Ave neighs/atom = 120.90282
Neighbor list builds = 0
Dangerous builds = 0

#write_data      fire_${name}.data

fix             3 all box/relax z 0.0 vmax 0.001
min_style       cg
minimize        0.0 1.0e-8 1000 2000
Switching to 'neigh_modify every 1 delay 0 check yes' setting during minimization
WARNING: Energy due to 3 extra global DOFs will be included in minimizer energies
 (src/min.cpp:219)
Per MPI rank memory allocation (min/avg/max) = 5.627 | 5.627 | 5.627 Mbytes
   Step          Time           Temp          Fnorm          PotEng         KinEng           Lx             Ly             Lz            Pxx            Pyy            Pzz            Pxy            Pxz            Pyz      
       764   0.764          7.1341555e-14  7.0611218e-09 -3282.2828      2.9324751e-15  4.9770056      4.3102133      204.31755      92617.693      92617.693      187934.23      6.4136177e-07  1.0129607e-10  5.7321971e-10
       770   0.77           7.1341555e-14  0.30824868    -3285.1703      2.9324751e-15  4.9770056      4.3102133      205.54345      82536.52       82536.52       164127.07      6.2080201e-07  3.5984454e-11  5.4119891e-10
       780   0.78           7.1341555e-14  0.77322869    -3289.1498      2.9324751e-15  4.9770056      4.3102133      207.58663      66216.38       66216.38       127398.15      5.8912128e-07 -1.3804734e-10  3.5626281e-10
       790   0.79           7.1341555e-14  1.1925811     -3292.1706      2.9324751e-15  4.9770056      4.3102133      209.6298       50459.25       50459.25       93953.031      5.6044904e-07 -3.1106e-10     3.5267179e-10
       800   0.8            7.1341555e-14  1.5810543     -3294.3162      2.9324751e-15  4.9770056      4.3102133      211.67298      35235.338      35235.338      63338.629      5.3467452e-07 -2.3613563e-10  1.8890263e-10
       810   0.81           7.1341555e-14  1.9486109     -3295.6584      2.9324751e-15  4.9770056      4.3102133      213.71615      20529.186      20529.186      35132.476      5.1218183e-07 -3.049572e-10   2.6079466e-10
       820   0.82           7.1341555e-14  2.2983264     -3296.258       2.9324751e-15  4.9770056      4.3102133      215.75933      6336.3645      6336.3645      8958.7438      4.9209495e-07 -6.9176186e-11  3.3801694e-10
       830   0.83           7.1341555e-14  0.39031105    -3296.61        2.9324751e-15  4.9770056      4.3102133      216.74172     -1989.3441     -1989.3441     -433.45376      4.9713065e-07  7.7814785e-11 -6.9049145e-11
       840   0.84           7.1341555e-14  0.094862527   -3296.6155      2.9324751e-15  4.9770056      4.3102133      216.69912     -1769.8201     -1769.8201      83.804897      4.9751821e-07  8.4182006e-12  2.4876737e-10
       850   0.85           7.1341555e-14  0.12657681    -3296.6156      2.9324751e-15  4.9770056      4.3102133      216.70797     -1855.5441     -1855.5441      30.721402      4.9785064e-07 -4.9053142e-11  7.7420361e-11
       860   0.86           7.1341555e-14  0.16175938    -3296.6158      2.9324751e-15  4.9770056      4.3102133      216.71581     -1896.6399     -1896.6399      26.765601      4.9748777e-07 -1.4539398e-12 -1.2821222e-10
       870   0.87           7.1341555e-14  0.15785671    -3296.6164      2.9324751e-15  4.9770056      4.3102133      216.71057     -1838.4655     -1838.4655      15.883819      4.9625474e-07  1.6376361e-11 -6.9628465e-10
       880   0.88           7.1341555e-14  0.086415571   -3296.6169      2.9324751e-15  4.9770056      4.3102133      216.71182     -1862.7587     -1862.7587      8.3991754      4.9710408e-07  8.3105719e-11 -1.1285466e-10
       890   0.89           7.1341555e-14  0.073471569   -3296.6174      2.9324751e-15  4.9770056      4.3102133      216.71633     -1939.572      -1939.572       14.342291      4.9757638e-07 -2.1403486e-10  6.8482833e-10
       900   0.9            7.1341555e-14  0.05288018    -3296.6178      2.9324751e-15  4.9770056      4.3102133      216.71207     -1862.0396     -1862.0396      6.4984516      4.9704889e-07  2.8314072e-11 -7.2185577e-10
       910   0.91           7.1341555e-14  0.045842771   -3296.6181      2.9324751e-15  4.9770056      4.3102133      216.71231     -1880.2186     -1880.2186      7.3651965      4.9710856e-07 -3.6961299e-11  6.8713439e-10
       920   0.92           7.1341555e-14  0.033747795   -3296.6182      2.9324751e-15  4.9770056      4.3102133      216.71237     -1881.9046     -1881.9046      6.5496793      4.9727001e-07 -1.1669973e-10 -4.1475513e-10
       930   0.93           7.1341555e-14  0.028104079   -3296.6183      2.9324751e-15  4.9770056      4.3102133      216.71337     -1886.0568     -1886.0568      5.5573839      4.9673687e-07  4.3771761e-10 -2.5104674e-10
       940   0.94           7.1341555e-14  0.036592462   -3296.6184      2.9324751e-15  4.9770056      4.3102133      216.71257     -1871.6198     -1871.6198      5.7555362      4.9766826e-07 -8.3885979e-10  9.2925894e-10
       950   0.95           7.1341555e-14  0.028976674   -3296.6185      2.9324751e-15  4.9770056      4.3102133      216.71348     -1893.5528     -1893.5528      5.5650829      4.9712103e-07  2.3500526e-10 -5.7230401e-10
       960   0.96           7.1341555e-14  0.035258146   -3296.6185      2.9324751e-15  4.9770056      4.3102133      216.71343     -1882.469      -1882.469       4.2998632      4.9643208e-07  1.9077442e-10  3.7844245e-10
       970   0.97           7.1341555e-14  0.029775171   -3296.6186      2.9324751e-15  4.9770056      4.3102133      216.71331     -1885.2727     -1885.2727      6.4534492      4.9737704e-07 -6.1341701e-10  3.0518759e-10
       980   0.98           7.1341555e-14  0.029903352   -3296.6186      2.9324751e-15  4.9770056      4.3102133      216.71391     -1898.3381     -1898.3381      5.7332128      4.9696069e-07  4.443741e-10  -7.7960364e-10
       990   0.99           7.1341555e-14  0.027245624   -3296.6187      2.9324751e-15  4.9770056      4.3102133      216.71431     -1891.038      -1891.038       4.2399875      4.9620871e-07  2.5704319e-10  3.6184482e-10
      1000   1              7.1341555e-14  0.023770072   -3296.6187      2.9324751e-15  4.9770056      4.3102133      216.71352     -1892.3708     -1892.3708      3.6674021      4.9720358e-07 -5.0857853e-10  4.1198132e-10
      1010   1.01           7.1341555e-14  0.020362084   -3296.6187      2.9324751e-15  4.9770056      4.3102133      216.71446     -1896.4801     -1896.4801      4.0439135      4.9650319e-07  6.1938261e-10 -7.0063879e-10
      1020   1.02           7.1341555e-14  0.023320987   -3296.6188      2.9324751e-15  4.9770056      4.3102133      216.7144      -1898.9246     -1898.9246      3.4910523      4.9684484e-07 -6.6147079e-10  5.9629174e-10
      1030   1.03           7.1341555e-14  0.019796224   -3296.6188      2.9324751e-15  4.9770056      4.3102133      216.71427     -1895.8806     -1895.8806      2.7725359      4.9687184e-07 -4.426133e-10   5.1158032e-10
      1040   1.04           7.1341555e-14  0.023272656   -3296.6188      2.9324751e-15  4.9770056      4.3102133      216.71403     -1892.099      -1892.099       4.4518607      4.9637434e-07  1.0619976e-09 -7.1552404e-10
      1050   1.05           7.1341555e-14  0.017741486   -3296.6188      2.9324751e-15  4.9770056      4.3102133      216.71439     -1899.8581     -1899.8581      2.6755922      4.9664379e-07 -5.1791237e-10 -2.5914989e-10
      1060   1.06           7.1341555e-14  0.015507895   -3296.6189      2.9324751e-15  4.9770056      4.3102133      216.71384     -1889.5264     -1889.5264      2.8593936      4.9658733e-07 -3.0533032e-11  1.0821339e-09
      1070   1.07           7.1341555e-14  0.013764659   -3296.6189      2.9324751e-15  4.9770056      4.3102133      216.71432     -1896.9874     -1896.9874      2.213699       4.9617847e-07  4.7414098e-10 -1.1657719e-09
      1080   1.08           7.1341555e-14  0.014405444   -3296.6189      2.9324751e-15  4.9770056      4.3102133      216.7144      -1897.7033     -1897.7033      2.5758474      4.9731408e-07 -6.1678095e-10  3.6730894e-10
      1090   1.09           7.1341555e-14  0.013929212   -3296.6189      2.9324751e-15  4.9770056      4.3102133      216.71393     -1893.2733     -1893.2733      2.4365054      4.9614588e-07  1.7248478e-10  6.6433709e-10
      1100   1.1            7.1341555e-14  0.014334389   -3296.6189      2.9324751e-15  4.9770056      4.3102133      216.71436     -1895.7476     -1895.7476      2.8005919      4.9595098e-07  6.8955511e-10 -1.0284021e-09
      1110   1.11           7.1341555e-14  0.010778235   -3296.6189      2.9324751e-15  4.9770056      4.3102133      216.71412     -1894.6617     -1894.6617      1.7114989      4.96761e-07   -6.0254833e-10  1.9496826e-11
      1120   1.12           7.1341555e-14  0.0072439211  -3296.6189      2.9324751e-15  4.9770056      4.3102133      216.71457     -1899.3048     -1899.3048      1.2269486      4.9682378e-07  5.6933582e-11  2.4623391e-10
      1130   1.13           7.1341555e-14  0.0042573103  -3296.6189      2.9324751e-15  4.9770056      4.3102133      216.71438     -1896.8518     -1896.8518      0.82332747     4.9625083e-07  1.6682167e-11 -1.1261419e-10
      1140   1.14           7.1341555e-14  0.0044203003  -3296.6189      2.9324751e-15  4.9770056      4.3102133      216.7143      -1895.8364     -1895.8364      0.95389294     4.9648614e-07 -1.438646e-11   4.6559905e-11
      1150   1.15           7.1341555e-14  0.0048940191  -3296.6189      2.9324751e-15  4.9770056      4.3102133      216.71441     -1897.0378     -1897.0378      0.97112679     4.9642187e-07  5.4025725e-11 -1.3142704e-10
      1160   1.16           7.1341555e-14  0.0031285496  -3296.6189      2.9324751e-15  4.9770056      4.3102133      216.71442     -1897.5396     -1897.5396      0.62058266     4.9633233e-07  3.1742026e-10 -8.1471423e-11
      1170   1.17           7.1341555e-14  0.002299675   -3296.6189      2.9324751e-15  4.9770056      4.3102133      216.71442     -1896.9183     -1896.9183      0.46560416     4.9653316e-07 -2.8022974e-10  8.329124e-12 
      1180   1.18           7.1341555e-14  0.0018927847  -3296.6189      2.9324751e-15  4.9770056      4.3102133      216.7144      -1896.931      -1896.931       0.40148255     4.9648698e-07 -9.1598859e-11  1.0593749e-10
      1190   1.19           7.1341555e-14  0.0015708231  -3296.6189      2.9324751e-15  4.9770056      4.3102133      216.71447     -1897.5298     -1897.5298      0.32124524     4.9651503e-07  1.5067511e-10 -9.7591594e-11
      1200   1.2            7.1341555e-14  0.0013752718  -3296.6189      2.9324751e-15  4.9770056      4.3102133      216.71446     -1897.4602     -1897.4602      0.26533502     4.960984e-07   2.9277956e-10 -2.8234365e-10
      1210   1.21           7.1341555e-14  0.0011786054  -3296.6189      2.9324751e-15  4.9770056      4.3102133      216.71445     -1897.5415     -1897.5415      0.23597808     4.9643819e-07  8.5247373e-11 -3.0485119e-11
      1220   1.22           7.1341555e-14  0.0015633744  -3296.6189      2.9324751e-15  4.9770056      4.3102133      216.7145      -1897.8152     -1897.8152      0.31802098     4.9662645e-07 -4.589889e-10   3.704319e-10 
      1230   1.23           7.1341555e-14  0.0016994294  -3296.6189      2.9324751e-15  4.9770056      4.3102133      216.71443     -1897.352      -1897.352       0.33917362     4.9655877e-07 -4.4682178e-10  2.8188455e-10
      1240   1.24           7.1341555e-14  0.001284936   -3296.6189      2.9324751e-15  4.9770056      4.3102133      216.71446     -1897.2556     -1897.2556      0.24564594     4.9642456e-07  6.9621238e-10 -2.45916e-10  
      1250   1.25           7.1341555e-14  0.0015377229  -3296.6189      2.9324751e-15  4.9770056      4.3102133      216.71447     -1897.6532     -1897.6532      0.30360116     4.9613019e-07 -1.0866361e-10 -1.7691794e-10
      1260   1.26           7.1341555e-14  0.0016190149  -3296.6189      2.9324751e-15  4.9770056      4.3102133      216.7145      -1898.131      -1898.131       0.3196596      4.9643284e-07 -8.7512454e-10  3.3475513e-10
      1270   1.27           7.1341555e-14  0.0015190634  -3296.6189      2.9324751e-15  4.9770056      4.3102133      216.71449     -1897.7912     -1897.7912      0.29764027     4.9644867e-07  1.9337529e-10  4.4710384e-10
      1280   1.28           7.1341555e-14  0.0012892856  -3296.6189      2.9324751e-15  4.9770056      4.3102133      216.71446     -1897.4266     -1897.4266      0.25666399     4.9644833e-07  4.8355309e-10 -2.2476438e-10
      1290   1.29           7.1341555e-14  0.0013983046  -3296.6189      2.9324751e-15  4.9770056      4.3102133      216.71448     -1897.6056     -1897.6056      0.27588725     4.9643741e-07  3.8491404e-11 -5.5919429e-10
      1300   1.3            7.1341555e-14  0.0016390047  -3296.6189      2.9324751e-15  4.9770056      4.3102133      216.71446     -1897.5517     -1897.5517      0.32191071     4.9598436e-07 -5.2097317e-10  3.0013063e-10
      1310   1.31           7.1341555e-14  0.0013491862  -3296.6189      2.9324751e-15  4.9770056      4.3102133      216.71446     -1897.4616     -1897.4616      0.26369582     4.9603492e-07 -4.5914201e-11  8.4000511e-10
      1320   1.32           7.1341555e-14  0.0011747436  -3296.6189      2.9324751e-15  4.9770056      4.3102133      216.71444     -1897.4156     -1897.4156      0.22990963     4.9654791e-07  5.2946733e-10 -1.8619168e-11
      1330   1.33           7.1341555e-14  0.00072197578 -3296.6189      2.9324751e-15  4.9770056      4.3102133      216.71448     -1897.6381     -1897.6381      0.14395406     4.9616365e-07  3.5621767e-10 -6.2522944e-10
      1340   1.34           7.1341555e-14  0.00069592621 -3296.6189      2.9324751e-15  4.9770056      4.3102133      216.71446     -1897.4059     -1897.4059      0.13939514     4.96214e-07   -2.9859536e-10  1.2357377e-10
      1350   1.35           7.1341555e-14  0.0010491499  -3296.6189      2.9324751e-15  4.9770056      4.3102133      216.71445     -1897.4245     -1897.4245      0.21206147     4.9647504e-07 -3.5323328e-10  7.7504612e-10
      1360   1.36           7.1341555e-14  0.00098981621 -3296.6189      2.9324751e-15  4.9770056      4.3102133      216.7145      -1897.7878     -1897.7878      0.19589812     4.963818e-07   2.5459421e-10 -9.0297926e-12
      1370   1.37           7.1341555e-14  0.00081327321 -3296.6189      2.9324751e-15  4.9770056      4.3102133      216.71447     -1897.7176     -1897.7176      0.1655478      4.964352e-07   3.3127095e-10 -5.1923699e-10
      1380   1.38           7.1341555e-14  0.00087811455 -3296.6189      2.9324751e-15  4.9770056      4.3102133      216.71447     -1897.5203     -1897.5203      0.1729227      4.9579654e-07  3.336432e-11   2.8601678e-10
      1390   1.39           7.1341555e-14  0.0012612612  -3296.6189      2.9324751e-15  4.9770056      4.3102133      216.71444     -1897.2048     -1897.2048      0.24020986     4.9607769e-07 -1.0821214e-09  5.5780979e-11
      1400   1.4            7.1341555e-14  0.001023846   -3296.6189      2.9324751e-15  4.9770056      4.3102133      216.71445     -1897.3484     -1897.3484      0.19225557     4.9667355e-07 -2.6630239e-10  1.6169931e-10
      1410   1.41           7.1341555e-14  0.00068609112 -3296.6189      2.9324751e-15  4.9770056      4.3102133      216.71448     -1897.6292     -1897.6292      0.13102452     4.9656007e-07  8.5936076e-10 -1.4235793e-10
      1420   1.42           7.1341555e-14  0.00079216947 -3296.6189      2.9324751e-15  4.9770056      4.3102133      216.71446     -1897.4409     -1897.4409      0.15949942     4.9524147e-07 -5.3490047e-11  2.1444085e-10
      1430   1.43           7.1341555e-14  0.00086960647 -3296.6189      2.9324751e-15  4.9770056      4.3102133      216.71446     -1897.4452     -1897.4452      0.17549661     4.9603179e-07 -1.0645973e-09  4.2063627e-10
      1440   1.44           7.1341555e-14  0.00083576807 -3296.6189      2.9324751e-15  4.9770056      4.3102133      216.71446     -1897.473      -1897.473       0.17123764     4.9709376e-07 -1.7676968e-10 -8.9555654e-10
      1450   1.45           7.1341555e-14  0.00073411073 -3296.6189      2.9324751e-15  4.9770056      4.3102133      216.71446     -1897.4799     -1897.4799      0.15203433     4.9534602e-07  6.9284532e-10  2.3338763e-10
      1460   1.46           7.1341555e-14  0.00060835982 -3296.6189      2.9324751e-15  4.9770056      4.3102133      216.71447     -1897.4913     -1897.4913      0.12465357     4.9649043e-07  6.5833313e-10  7.8029751e-10
      1470   1.47           7.1341555e-14  0.00046937142 -3296.6189      2.9324751e-15  4.9770056      4.3102133      216.71447     -1897.4833     -1897.4833      0.10379729     4.9630849e-07 -3.4512175e-10 -1.7121454e-10
      1480   1.48           7.1341555e-14  0.00049306159 -3296.6189      2.9324751e-15  4.9770056      4.3102133      216.71446     -1897.4392     -1897.4392      0.11320108     4.9506955e-07 -7.8482678e-10 -3.2196139e-10
      1490   1.49           7.1341555e-14  0.00042100652 -3296.6189      2.9324751e-15  4.9770056      4.3102133      216.71445     -1897.3591     -1897.3591      0.10795558     4.9686378e-07 -7.2085301e-11 -1.8265723e-10
      1500   1.5            7.1341555e-14  0.00029230488 -3296.6189      2.9324751e-15  4.9770056      4.3102133      216.71445     -1897.2981     -1897.2981      0.079080736    4.9680103e-07  3.3295451e-10  3.4424653e-10
      1510   1.51           7.1341555e-14  0.00027981453 -3296.6189      2.9324751e-15  4.9770056      4.3102133      216.71445     -1897.3066     -1897.3066      0.089337266    4.9519224e-07  2.3209631e-10  2.6943986e-10
      1520   1.52           7.1341555e-14  0.00020907282 -3296.6189      2.9324751e-15  4.9770056      4.3102133      216.71445     -1897.3651     -1897.3651      0.076062877    4.9566871e-07 -1.2197874e-10 -4.338438e-10 
      1530   1.53           7.1341555e-14  0.00019332478 -3296.6189      2.9324751e-15  4.9770056      4.3102133      216.71446     -1897.3688     -1897.3688      0.080735159    4.967649e-07  -1.4149227e-10 -4.2664818e-10
      1540   1.54           7.1341555e-14  0.00019596811 -3296.6189      2.9324751e-15  4.9770056      4.3102133      216.71445     -1897.3022     -1897.3022      0.095049226    4.9631002e-07  9.2287554e-11  1.7121933e-10
      1550   1.55           7.1341555e-14  0.00016294908 -3296.6189      2.9324751e-15  4.9770056      4.3102133      216.71445     -1897.2604     -1897.2604      0.08598597     4.9564118e-07 -1.3009017e-12  5.5620517e-10
      1560   1.56           7.1341555e-14  0.00022161136 -3296.6189      2.9324751e-15  4.9770056      4.3102133      216.71445     -1897.2833     -1897.2833      0.12980555     4.9602892e-07  2.9147868e-10  5.8325389e-11
      1570   1.57           7.1341555e-14  0.00016807451 -3296.6189      2.9324751e-15  4.9770056      4.3102133      216.71445     -1897.367      -1897.367       0.10142691     4.9677761e-07  5.5632712e-11 -4.0444196e-10
      1580   1.58           7.1341555e-14  0.00017694545 -3296.6189      2.9324751e-15  4.9770056      4.3102133      216.71445     -1897.3733     -1897.3733      0.11244742     4.9571726e-07 -5.8311039e-11 -1.0748228e-10
      1590   1.59           7.1341555e-14  0.00015426593 -3296.6189      2.9324751e-15  4.9770056      4.3102133      216.71445     -1897.3796     -1897.3796      0.10032824     4.9519495e-07  7.017221e-11   1.5331039e-11
      1600   1.6            7.1341555e-14  0.00015608215 -3296.6189      2.9324751e-15  4.9770056      4.3102133      216.71446     -1897.38       -1897.38        0.10205881     4.9609769e-07  1.6069971e-10  1.6937797e-10
      1610   1.61           7.1341555e-14  0.00015697504 -3296.6189      2.9324751e-15  4.9770056      4.3102133      216.71446     -1897.3774     -1897.3774      0.1008811      4.9703667e-07 -2.1311843e-10 -1.767649e-10 
      1620   1.62           7.1341555e-14  0.00018439556 -3296.6189      2.9324751e-15  4.9770056      4.3102133      216.71445     -1897.3611     -1897.3611      0.11601962     4.9660849e-07 -3.7351205e-10  9.0197497e-11
      1630   1.63           7.1341555e-14  0.00017055985 -3296.6189      2.9324751e-15  4.9770056      4.3102133      216.71445     -1897.3618     -1897.3618      0.10211403     4.9544576e-07 -4.5990728e-10  4.6351824e-10
      1640   1.64           7.1341555e-14  0.00014227495 -3296.6189      2.9324751e-15  4.9770056      4.3102133      216.71446     -1897.3707     -1897.3707      0.080727862    4.956467e-07  -2.8688725e-10  6.5851011e-11
      1650   1.65           7.1341555e-14  0.00015951259 -3296.6189      2.9324751e-15  4.9770056      4.3102133      216.71445     -1897.3596     -1897.3596      0.086693585    4.9630335e-07  2.7403128e-10 -4.2360397e-10
      1660   1.66           7.1341555e-14  0.00015300483 -3296.6189      2.9324751e-15  4.9770056      4.3102133      216.71445     -1897.3529     -1897.3529      0.079351879    4.9649478e-07  9.2746693e-10 -4.7157714e-10
      1670   1.67           7.1341555e-14  0.00016248281 -3296.6189      2.9324751e-15  4.9770056      4.3102133      216.71445     -1897.3516     -1897.3516      0.080044822    4.9604444e-07  8.2010422e-10 -1.4399364e-10
      1680   1.68           7.1341555e-14  0.00017907142 -3296.6189      2.9324751e-15  4.9770056      4.3102133      216.71445     -1897.3681     -1897.3681      0.08285938     4.9510488e-07  2.5872654e-10  5.9512939e-10
      1690   1.69           7.1341555e-14  0.00020559123 -3296.6189      2.9324751e-15  4.9770056      4.3102133      216.71446     -1897.3956     -1897.3956      0.088459842    4.9532859e-07 -6.7907107e-10  7.0215491e-10
      1700   1.7            7.1341555e-14  0.00019697134 -3296.6189      2.9324751e-15  4.9770056      4.3102133      216.71446     -1897.4188     -1897.4188      0.078868638    4.9661636e-07 -1.5595524e-09 -8.1748805e-11
      1710   1.71           7.1341555e-14  0.00015242781 -3296.6189      2.9324751e-15  4.9770056      4.3102133      216.71446     -1897.4231     -1897.4231      0.056678469    4.9688787e-07 -1.2350921e-09 -2.7095119e-10
      1720   1.72           7.1341555e-14  0.00017624114 -3296.6189      2.9324751e-15  4.9770056      4.3102133      216.71446     -1897.4001     -1897.4001      0.060899891    4.9594839e-07 -2.4556446e-10  3.6066563e-10
      1730   1.73           7.1341555e-14  9.5663585e-05 -3296.6189      2.9324751e-15  4.9770056      4.3102133      216.71444     -1897.2401     -1897.2401      0.30681929     4.9615046e-07 -1.2649364e-10 -2.9302113e-10
      1740   1.74           7.1341555e-14  7.1434867e-05 -3296.6189      2.9324751e-15  4.9770056      4.3102133      216.71446     -1897.3887     -1897.3887      0.07048716     4.960067e-07  -1.1532117e-10 -2.0626478e-10
      1750   1.75           7.1341555e-14  6.5667239e-05 -3296.6189      2.9324751e-15  4.9770056      4.3102133      216.71446     -1897.4121     -1897.4121      0.024652757    4.959017e-07  -1.3544689e-11  7.2611877e-10
      1760   1.76           7.1341555e-14  6.0684863e-05 -3296.6189      2.9324751e-15  4.9770056      4.3102133      216.71446     -1897.4146     -1897.4146      0.0084014273   4.9610663e-07  1.1180108e-10 -5.8074531e-10
      1764   1.764          7.1341555e-14  6.1873761e-05 -3296.6189      2.9324751e-15  4.9770056      4.3102133      216.71446     -1897.4237     -1897.4237      0.0055163598   4.9564684e-07  1.0805142e-10 -3.3084531e-10
Loop time of 12.6034 on 2 procs for 1000 steps with 319 atoms

103.3% CPU use with 1 MPI tasks x 2 OpenMP threads

Minimization stats:
  Stopping criterion = max iterations
  Energy initial, next-to-last, final = 
     -3282.28283612002  -3296.61894332322  -3296.61894332326
  Force two-norm initial, final = 514.12424 6.3687496e-05
  Force max component initial, final = 514.12424 1.5090888e-05
  Final line search alpha, max atom move = 1 1.5090888e-05
  Iterations, force evaluations = 1000 1941

MPI task timing breakdown:
Section |  min time  |  avg time  |  max time  |%varavg| %total
---------------------------------------------------------------
Pair    | 12.426     | 12.426     | 12.426     |   0.0 | 98.59
Neigh   | 0.011875   | 0.011875   | 0.011875   |   0.0 |  0.09
Comm    | 0.043006   | 0.043006   | 0.043006   |   0.0 |  0.34
Output  | 0.0020012  | 0.0020012  | 0.0020012  |   0.0 |  0.02
Modify  | 0          | 0          | 0          |   0.0 |  0.00
Other   |            | 0.1204     |            |       |  0.96

Nlocal:            319 ave         319 max         319 min
Histogram: 1 0 0 0 0 0 0 0 0 0
Nghost:           6797 ave        6797 max        6797 min
Histogram: 1 0 0 0 0 0 0 0 0 0
Neighs:              0 ave           0 max           0 min
Histogram: 1 0 0 0 0 0 0 0 0 0
FullNghs:        36144 ave       36144 max       36144 min
Histogram: 1 0 0 0 0 0 0 0 0 0

Total # of neighbors = 36144
Ave neighs/atom = 113.30408
Neighbor list builds = 15
Dangerous builds = 0
unfix           3
min_style       fire
minimize        0.0 1.0e-8 2000 4000
Switching to 'neigh_modify every 1 delay 0 check yes' setting during minimization
  Parameters for fire:
    dmax  delaystep dtgrow dtshrink alpha0 alphashrink tmax tmin   integrator   halfstepback   abcfire  
     0.1     20      1.1     0.5     0.25     0.99      10  0.02 eulerimplicit      yes          no     
Per MPI rank memory allocation (min/avg/max) = 4.503 | 4.503 | 4.503 Mbytes
   Step          Time           Temp          Fnorm          PotEng         KinEng           Lx             Ly             Lz            Pxx            Pyy            Pzz            Pxy            Pxz            Pyz      
      1764   1.764          0              6.1873761e-05 -3296.6189      0              4.9770056      4.3102133      216.71446     -1897.4237     -1897.4237      0.0055163599   4.9566677e-07 -4.2853256e-12 -2.9624704e-10
      1770   1.77           1.3152274e-10  6.0051351e-05 -3296.6189      5.4062062e-12  4.9770056      4.3102133      216.71446     -1897.4237     -1897.4237      0.0055839928   4.9570014e-07  2.9537321e-11 -3.7017654e-10
      1780   1.78           8.9205655e-10  5.1393678e-05 -3296.6189      3.666774e-11   4.9770056      4.3102133      216.71446     -1897.4236     -1897.4236      0.0059546114   4.9566188e-07 -3.6277658e-11 -2.6648852e-10
      1790   2.8828129      2.1768133e-09  3.9282854e-05 -3296.6189      8.9477316e-11  4.9770056      4.3102133      216.71446     -1897.4234     -1897.4234      0.0066061466   4.9573503e-07 -1.4907602e-10 -1.689753e-10 
      1800   7.5190467      5.3634257e-09  2.6525585e-05 -3296.6189      2.2046215e-10  4.9770056      4.3102133      216.71446     -1897.4225     -1897.4225      0.0064850706   4.960099e-07   3.1834201e-11 -2.9355553e-11
      1810   18.1           1.0497487e-08  1.2099947e-05 -3296.6189      4.3149633e-10  4.9770056      4.3102133      216.71446     -1897.4218     -1897.4218      0.0035998644   4.9593001e-07 -3.0609537e-11 -1.3875896e-10
      1820   18.2           1.2324281e-08  9.4238088e-06 -3296.6189      5.0658619e-10  4.9770056      4.3102133      216.71446     -1897.4221     -1897.4221      0.0045628281   4.9611e-07    -6.1218584e-11 -1.2051655e-12
      1830   18.3           1.8704344e-08  8.3908214e-06 -3296.6189      7.6883695e-10  4.9770056      4.3102133      216.71446     -1897.4231     -1897.4231      0.0071394666   4.9584155e-07  1.495274e-10   1.3353186e-11
      1840   18.4           2.6677308e-08  7.5811944e-06 -3296.6189      1.0965634e-09  4.9770056      4.3102133      216.71446     -1897.4237     -1897.4237      0.0086739581   4.9594838e-07 -5.4791278e-11  1.0912302e-10
      1850   18.5           3.548001e-08   6.6699176e-06 -3296.6189      1.4583961e-09  4.9770056      4.3102133      216.71446     -1897.4244     -1897.4244      0.010548794    4.9587063e-07  1.225264e-12   7.3381572e-13
      1860   18.6           4.2174152e-08  7.6802408e-06 -3296.6189      1.733557e-09   4.9770056      4.3102133      216.71446     -1897.425      -1897.425       0.012626052    4.9604174e-07  3.9786388e-12  3.602357e-11 
      1870   18.7           3.6706314e-08  4.8630525e-06 -3296.6189      1.508803e-09   4.9770056      4.3102133      216.71446     -1897.4259     -1897.4259      0.014560374    4.9589114e-07 -1.5197575e-10 -7.9400897e-11
      1880   18.8           3.4219591e-08  5.2186399e-06 -3296.6189      1.4065869e-09  4.9770056      4.3102133      216.71446     -1897.4266     -1897.4266      0.016574203    4.9587124e-07  8.4329309e-11  8.9927384e-11
      1890   18.9           2.7375819e-08  2.9487637e-06 -3296.6189      1.1252755e-09  4.9770056      4.3102133      216.71446     -1897.4273     -1897.4273      0.01828998     4.9592206e-07  6.4585528e-11 -4.5646063e-11
      1900   19             2.108681e-08   2.0322208e-06 -3296.6189      8.6676753e-10  4.9770056      4.3102133      216.71446     -1897.428      -1897.428       0.019888365    4.9569799e-07 -7.2237977e-11 -6.2710357e-11
      1910   19.1           1.6365067e-08  2.7835599e-06 -3296.6189      6.7268158e-10  4.9770056      4.3102133      216.71446     -1897.4286     -1897.4286      0.021249102    4.9578003e-07 -2.2436784e-10 -1.2650042e-11
      1920   19.2           6.8274835e-09  2.9307173e-06 -3296.6189      2.8064184e-10  4.9770056      4.3102133      216.71446     -1897.4289     -1897.4289      0.022547909    4.9557831e-07  1.6375631e-11 -8.5467406e-11
      1930   19.3           2.447862e-09   5.1482694e-06 -3296.6189      1.006187e-10   4.9770056      4.3102133      216.71446     -1897.4293     -1897.4293      0.022662342    4.9576962e-07  2.6017787e-12  1.0416784e-10
      1940   19.4           9.4847493e-10  3.7111535e-06 -3296.6189      3.8986802e-11  4.9770056      4.3102133      216.71446     -1897.4294     -1897.4294      0.023110193    4.9601235e-07  3.4435633e-11  8.7464164e-11
      1950   9.75           6.2554795e-13  2.4349222e-06 -3296.6189      2.5712977e-14  4.9770056      4.3102133      216.71446     -1897.4295     -1897.4295      0.023425577    4.9581186e-07 -9.3971068e-11 -6.8199329e-11
      1960   4.9            1.3054e-14     2.9881012e-07 -3296.6189      5.3658109e-16  4.9770056      4.3102133      216.71446     -1897.4294     -1897.4294      0.023625582    4.9578248e-07 -1.0315391e-10 -4.2583031e-11
      1970   4.925          8.3142597e-14  2.1454343e-07 -3296.6189      3.4175537e-15  4.9770056      4.3102133      216.71446     -1897.4294     -1897.4294      0.023632494    4.9584645e-07 -1.5289429e-10  2.6216532e-11
      1980   7.247295       2.0270132e-13  2.1035219e-07 -3296.6189      8.3319824e-15  4.9770056      4.3102133      216.71446     -1897.4294     -1897.4294      0.02363714     4.957635e-07   1.8212634e-11 -2.0130508e-11
      1990   18.892554      7.0479783e-13  2.0895023e-07 -3296.6189      2.8970522e-14  4.9770056      4.3102133      216.71446     -1897.4294     -1897.4294      0.023641414    4.9579625e-07  2.1120533e-11 -7.5029067e-11
      2000   20             2.1511252e-12  2.0160918e-07 -3296.6189      8.8421411e-14  4.9770056      4.3102133      216.71446     -1897.4294     -1897.4294      0.02365355     4.9568238e-07  2.6018049e-11 -3.2410166e-11
      2010   20.1           4.4032843e-12  1.9196341e-07 -3296.6189      1.8099579e-13  4.9770056      4.3102133      216.71446     -1897.4294     -1897.4294      0.023672574    4.9577207e-07  7.3462724e-11  1.1311168e-12
      2020   20.2           7.3896434e-12  1.7941101e-07 -3296.6189      3.0374927e-13  4.9770056      4.3102133      216.71446     -1897.4294     -1897.4294      0.023698024    4.9580482e-07 -4.9587339e-11  2.606591e-13 
      2030   20.3           1.0951458e-11  1.6386446e-07 -3296.6189      4.5015668e-13  4.9770056      4.3102133      216.71446     -1897.4295     -1897.4295      0.023729617    4.956784e-07   2.9691181e-11 -9.6570477e-11
      2040   20.4           1.4868164e-11  1.4548722e-07 -3296.6189      6.111518e-13   4.9770056      4.3102133      216.71446     -1897.4295     -1897.4295      0.023767084    4.958186e-07  -3.4282596e-11  8.3078386e-11
      2050   20.5           1.8873564e-11  1.2452788e-07 -3296.6189      7.7579269e-13  4.9770056      4.3102133      216.71446     -1897.4295     -1897.4295      0.02380995     4.9557923e-07  2.6324134e-11  2.1823116e-10
      2060   20.6           1.8626785e-11  1.0273971e-07 -3296.6189      7.656489e-13   4.9770056      4.3102133      216.71446     -1897.4295     -1897.4295      0.023856536    4.9565851e-07 -5.6627512e-11 -4.7688587e-11
      2070   20.7           1.7527696e-11  8.2701209e-08 -3296.6189      7.2047116e-13  4.9770056      4.3102133      216.71446     -1897.4295     -1897.4295      0.023901872    4.9570167e-07  2.5405838e-11 -1.6938515e-10
      2080   20.8           1.3265514e-11  6.0549942e-08 -3296.6189      5.452753e-13   4.9770056      4.3102133      216.71446     -1897.4295     -1897.4295      0.02394206     4.9569922e-07  1.1325505e-10  5.075671e-11 
      2090   20.9           1.0193384e-11  9.2912015e-08 -3296.6189      4.1899624e-13  4.9770056      4.3102133      216.71446     -1897.4296     -1897.4296      0.023974307    4.9566065e-07 -2.770159e-11   1.2534336e-10
      2100   21             7.0516122e-12  6.761951e-08  -3296.6189      2.8985459e-13  4.9770056      4.3102133      216.71446     -1897.4296     -1897.4296      0.024009939    4.9565177e-07  2.1702114e-10  1.5572586e-11
      2110   21.1           4.48386e-12    4.5488769e-08 -3296.6189      1.8430784e-13  4.9770056      4.3102133      216.71446     -1897.4296     -1897.4296      0.024028869    4.9565269e-07  1.554961e-10  -1.2116807e-10
      2120   21.2           2.4081275e-12  3.5833354e-08 -3296.6189      9.8985423e-14  4.9770056      4.3102133      216.71446     -1897.4296     -1897.4296      0.024047324    4.9548832e-07 -8.8155273e-11  7.584931e-11 
      2130   10.65          1.2467752e-16  1.7803351e-08 -3296.6189      5.1248352e-18  4.9770056      4.3102133      216.71446     -1897.4296     -1897.4296      0.024058518    4.9558505e-07  6.8718256e-11  5.3308302e-11
      2132   10.66          1.991025e-16   7.9731793e-09 -3296.6189      8.1840536e-18  4.9770056      4.3102133      216.71446     -1897.4296     -1897.4296      0.024058646    4.9553117e-07  1.6376066e-10  4.1803447e-11
Loop time of 2.37284 on 2 procs for 368 steps with 319 atoms

103.3% CPU use with 1 MPI tasks x 2 OpenMP threads

Minimization stats:
  Stopping criterion = force tolerance
  Energy initial, next-to-last, final = 
     -3296.61894332326  -3296.61894332603  -3296.61894332603
  Force two-norm initial, final = 6.1873761e-05 7.9731793e-09
  Force max component initial, final = 1.4039599e-05 3.7785597e-09
  Final line search alpha, max atom move = 0 0
  Iterations, force evaluations = 368 372

MPI task timing breakdown:
Section |  min time  |  avg time  |  max time  |%varavg| %total
---------------------------------------------------------------
Pair    | 2.3611     | 2.3611     | 2.3611     |   0.0 | 99.50
Neigh   | 0          | 0          | 0          |   0.0 |  0.00
Comm    | 0.0082674  | 0.0082674  | 0.0082674  |   0.0 |  0.35
Output  | 0.00059357 | 0.00059357 | 0.00059357 |   0.0 |  0.03
Modify  | 0          | 0          | 0          |   0.0 |  0.00
Other   |            | 0.002908   |            |       |  0.12

Nlocal:            319 ave         319 max         319 min
Histogram: 1 0 0 0 0 0 0 0 0 0
Nghost:           6797 ave        6797 max        6797 min
Histogram: 1 0 0 0 0 0 0 0 0 0
Neighs:              0 ave           0 max           0 min
Histogram: 1 0 0 0 0 0 0 0 0 0
FullNghs:        36144 ave       36144 max       36144 min
Histogram: 1 0 0 0 0 0 0 0 0 0

Total # of neighbors = 36144
Ave neighs/atom = 113.30408
Neighbor list builds = 0
Dangerous builds = 0

fix             3 all box/relax z 0.0 vmax 0.001
min_style       cg
minimize        0.0 1.0e-8 1000 2000
Switching to 'neigh_modify every 1 delay 0 check yes' setting during minimization
WARNING: Energy due to 3 extra global DOFs will be included in minimizer energies
 (src/min.cpp:219)
Per MPI rank memory allocation (min/avg/max) = 5.628 | 5.628 | 5.628 Mbytes
   Step          Time           Temp          Fnorm          PotEng         KinEng           Lx             Ly             Lz            Pxx            Pyy            Pzz            Pxy            Pxz            Pyz      
      2132   2.132          1.991025e-16   7.9732004e-09 -3296.6189      8.1840536e-18  4.9770056      4.3102133      216.71446     -1897.4296     -1897.4296      0.024058646    4.9552597e-07  2.2352564e-10  6.2656147e-11
      2140   2.14           1.991025e-16   2.0144139e-08 -3296.6189      8.1840536e-18  4.9770056      4.3102133      216.71446     -1897.443      -1897.443      -1.2578637e-05  4.9564412e-07 -7.04783e-11   -7.3477071e-11
      2150   2.15           1.991025e-16   2.1351127e-08 -3296.6189      8.1840536e-18  4.9770056      4.3102133      216.71446     -1897.443      -1897.443       1.9686051e-07  4.954926e-07  -5.670404e-11  -1.7117388e-11
      2160   2.16           1.991025e-16   2.1814167e-08 -3296.6189      8.1840536e-18  4.9770056      4.3102133      216.71446     -1897.443      -1897.443       5.6742081e-05  4.9581063e-07  2.4365137e-10 -1.5872516e-09
      2170   2.17           1.991025e-16   2.0640346e-08 -3296.6189      8.1840536e-18  4.9770056      4.3102133      216.71446     -1897.443      -1897.443       6.4560449e-06  4.9535914e-07  1.0430176e-10 -3.3618522e-10
      2180   2.18           1.991025e-16   1.4081926e-08 -3296.6189      8.1840536e-18  4.9770056      4.3102133      216.71446     -1897.443      -1897.443       4.8468776e-06  4.9541975e-07 -1.9207441e-10  1.3982692e-09
      2190   2.19           1.991025e-16   1.1313984e-08 -3296.6189      8.1840536e-18  4.9770056      4.3102133      216.71446     -1897.443      -1897.443       2.3501581e-05  4.9569003e-07 -2.5543601e-10 -3.49761e-10  
      2194   2.194          1.991025e-16   7.4924902e-09 -3296.6189      8.1840536e-18  4.9770056      4.3102133      216.71446     -1897.443      -1897.443       2.0280003e-08  4.9488806e-07 -9.5562759e-10  6.7366752e-09
Loop time of 0.79874 on 2 procs for 62 steps with 319 atoms

102.9% CPU use with 1 MPI tasks x 2 OpenMP threads

Minimization stats:
  Stopping criterion = force tolerance
  Energy initial, next-to-last, final = 
     -3296.61894332603  -3296.61894332603  -3296.61894332603
  Force two-norm initial, final = 6.9809675e-05 7.4927213e-09
  Force max component initial, final = 6.9809675e-05 1.1609768e-09
  Final line search alpha, max atom move = 1 1.1609768e-09
  Iterations, force evaluations = 62 124

MPI task timing breakdown:
Section |  min time  |  avg time  |  max time  |%varavg| %total
---------------------------------------------------------------
Pair    | 0.78896    | 0.78896    | 0.78896    |   0.0 | 98.78
Neigh   | 0          | 0          | 0          |   0.0 |  0.00
Comm    | 0.0024165  | 0.0024165  | 0.0024165  |   0.0 |  0.30
Output  | 8.7919e-05 | 8.7919e-05 | 8.7919e-05 |   0.0 |  0.01
Modify  | 0          | 0          | 0          |   0.0 |  0.00
Other   |            | 0.007274   |            |       |  0.91

Nlocal:            319 ave         319 max         319 min
Histogram: 1 0 0 0 0 0 0 0 0 0
Nghost:           6797 ave        6797 max        6797 min
Histogram: 1 0 0 0 0 0 0 0 0 0
Neighs:              0 ave           0 max           0 min
Histogram: 1 0 0 0 0 0 0 0 0 0
FullNghs:        36144 ave       36144 max       36144 min
Histogram: 1 0 0 0 0 0 0 0 0 0

Total # of neighbors = 36144
Ave neighs/atom = 113.30408
Neighbor list builds = 0
Dangerous builds = 0
unfix           3
min_style       fire
minimize        0.0 1.0e-8 2000 4000
Switching to 'neigh_modify every 1 delay 0 check yes' setting during minimization
  Parameters for fire:
    dmax  delaystep dtgrow dtshrink alpha0 alphashrink tmax tmin   integrator   halfstepback   abcfire  
     0.1     20      1.1     0.5     0.25     0.99      10  0.02 eulerimplicit      yes          no     
Per MPI rank memory allocation (min/avg/max) = 4.503 | 4.503 | 4.503 Mbytes
   Step          Time           Temp          Fnorm          PotEng         KinEng           Lx             Ly             Lz            Pxx            Pyy            Pzz            Pxy            Pxz            Pyz      
      2194   2.194          0              7.492441e-09  -3296.6189      0              4.9770056      4.3102133      216.71446     -1897.443      -1897.443       2.0032672e-08  4.9495204e-07 -9.8034474e-10  6.6849022e-09
      2195   2.195          6.8546656e-20  7.4845487e-09 -3296.6189      2.8175915e-21  4.9770056      4.3102133      216.71446     -1897.443      -1897.443       2.0252448e-08  4.9491837e-07 -9.291504e-10   6.741269e-09 
Loop time of 0.01923 on 2 procs for 1 steps with 319 atoms

100.8% CPU use with 1 MPI tasks x 2 OpenMP threads

Minimization stats:
  Stopping criterion = force tolerance
  Energy initial, next-to-last, final = 
     -3296.61894332603  -3296.61894332603  -3296.61894332603
  Force two-norm initial, final = 7.492441e-09 7.4845487e-09
  Force max component initial, final = 1.1609686e-09 1.1604053e-09
  Final line search alpha, max atom move = 0 0
  Iterations, force evaluations = 1 2

MPI task timing breakdown:
Section |  min time  |  avg time  |  max time  |%varavg| %total
---------------------------------------------------------------
Pair    | 0.019138   | 0.019138   | 0.019138   |   0.0 | 99.52
Neigh   | 0          | 0          | 0          |   0.0 |  0.00
Comm    | 5.6723e-05 | 5.6723e-05 | 5.6723e-05 |   0.0 |  0.29
Output  | 0          | 0          | 0          |   0.0 |  0.00
Modify  | 0          | 0          | 0          |   0.0 |  0.00
Other   |            | 3.56e-05   |            |       |  0.19

Nlocal:            319 ave         319 max         319 min
Histogram: 1 0 0 0 0 0 0 0 0 0
Nghost:           6797 ave        6797 max        6797 min
Histogram: 1 0 0 0 0 0 0 0 0 0
Neighs:              0 ave           0 max           0 min
Histogram: 1 0 0 0 0 0 0 0 0 0
FullNghs:        36144 ave       36144 max       36144 min
Histogram: 1 0 0 0 0 0 0 0 0 0

Total # of neighbors = 36144
Ave neighs/atom = 113.30408
Neighbor list builds = 0
Dangerous builds = 0

fix             3 all box/relax z 0.0 vmax 0.001
min_style       cg
minimize        0.0 1.0e-8 1000 2000
Switching to 'neigh_modify every 1 delay 0 check yes' setting during minimization
WARNING: Energy due to 3 extra global DOFs will be included in minimizer energies
 (src/min.cpp:219)
Per MPI rank memory allocation (min/avg/max) = 5.628 | 5.628 | 5.628 Mbytes
   Step          Time           Temp          Fnorm          PotEng         KinEng           Lx             Ly             Lz            Pxx            Pyy            Pzz            Pxy            Pxz            Pyz      
      2195   2.195          6.8546656e-20  7.4847418e-09 -3296.6189      2.8175915e-21  4.9770056      4.3102133      216.71446     -1897.443      -1897.443       2.0202249e-08  4.9486143e-07 -9.8287002e-10  6.7201604e-09
      2197   2.197          6.8546656e-20  6.8101576e-09 -3296.6189      2.8175915e-21  4.9770056      4.3102133      216.71446     -1897.443      -1897.443       3.6065116e-07  4.9535945e-07 -5.4025711e-11  9.0590395e-10
Loop time of 0.0318008 on 2 procs for 2 steps with 319 atoms

108.8% CPU use with 1 MPI tasks x 2 OpenMP threads

Minimization stats:
  Stopping criterion = force tolerance
  Energy initial, next-to-last, final = 
     -3296.61894332603  -3296.61894332603  -3296.61894332603
  Force two-norm initial, final = 7.4849714e-09 6.8900922e-09
  Force max component initial, final = 1.160372e-09 1.163871e-09
  Final line search alpha, max atom move = 1 1.163871e-09
  Iterations, force evaluations = 2 4

MPI task timing breakdown:
Section |  min time  |  avg time  |  max time  |%varavg| %total
---------------------------------------------------------------
Pair    | 0.031444   | 0.031444   | 0.031444   |   0.0 | 98.88
Neigh   | 0          | 0          | 0          |   0.0 |  0.00
Comm    | 9.6251e-05 | 9.6251e-05 | 9.6251e-05 |   0.0 |  0.30
Output  | 0          | 0          | 0          |   0.0 |  0.00
Modify  | 0          | 0          | 0          |   0.0 |  0.00
Other   |            | 0.0002609  |            |       |  0.82

Nlocal:            319 ave         319 max         319 min
Histogram: 1 0 0 0 0 0 0 0 0 0
Nghost:           6797 ave        6797 max        6797 min
Histogram: 1 0 0 0 0 0 0 0 0 0
Neighs:              0 ave           0 max           0 min
Histogram: 1 0 0 0 0 0 0 0 0 0
FullNghs:        36144 ave       36144 max       36144 min
Histogram: 1 0 0 0 0 0 0 0 0 0

Total # of neighbors = 36144
Ave neighs/atom = 113.30408
Neighbor list builds = 0
Dangerous builds = 0
unfix           3
min_style       fire
minimize        0.0 1.0e-8 2000 4000
Switching to 'neigh_modify every 1 delay 0 check yes' setting during minimization
  Parameters for fire:
    dmax  delaystep dtgrow dtshrink alpha0 alphashrink tmax tmin   integrator   halfstepback   abcfire  
     0.1     20      1.1     0.5     0.25     0.99      10  0.02 eulerimplicit      yes          no     
Per MPI rank memory allocation (min/avg/max) = 4.503 | 4.503 | 4.503 Mbytes
   Step          Time           Temp          Fnorm          PotEng         KinEng           Lx             Ly             Lz            Pxx            Pyy            Pzz            Pxy            Pxz            Pyz      
      2197   2.197          0              6.8098004e-09 -3296.6189      0              4.9770056      4.3102133      216.71446     -1897.443      -1897.443       3.6018161e-07  4.9525905e-07 -1.4692545e-11  9.9099827e-10
      2198   2.198          6.0374916e-20  6.7980563e-09 -3296.6189      2.4816944e-21  4.9770056      4.3102133      216.71446     -1897.443      -1897.443       3.5914456e-07  4.9521803e-07 -4.4536776e-11  9.2954498e-10
Loop time of 0.0184943 on 2 procs for 1 steps with 319 atoms

101.1% CPU use with 1 MPI tasks x 2 OpenMP threads

Minimization stats:
  Stopping criterion = force tolerance
  Energy initial, next-to-last, final = 
     -3296.61894332603  -3296.61894332603  -3296.61894332603
  Force two-norm initial, final = 6.8098004e-09 6.7980563e-09
  Force max component initial, final = 1.1638651e-09 1.1611735e-09
  Final line search alpha, max atom move = 0 0
  Iterations, force evaluations = 1 2

MPI task timing breakdown:
Section |  min time  |  avg time  |  max time  |%varavg| %total
---------------------------------------------------------------
Pair    | 0.018402   | 0.018402   | 0.018402   |   0.0 | 99.50
Neigh   | 0          | 0          | 0          |   0.0 |  0.00
Comm    | 5.7511e-05 | 5.7511e-05 | 5.7511e-05 |   0.0 |  0.31
Output  | 0          | 0          | 0          |   0.0 |  0.00
Modify  | 0          | 0          | 0          |   0.0 |  0.00
Other   |            | 3.478e-05  |            |       |  0.19

Nlocal:            319 ave         319 max         319 min
Histogram: 1 0 0 0 0 0 0 0 0 0
Nghost:           6797 ave        6797 max        6797 min
Histogram: 1 0 0 0 0 0 0 0 0 0
Neighs:              0 ave           0 max           0 min
Histogram: 1 0 0 0 0 0 0 0 0 0
FullNghs:        36144 ave       36144 max       36144 min
Histogram: 1 0 0 0 0 0 0 0 0 0

Total # of neighbors = 36144
Ave neighs/atom = 113.30408
Neighbor list builds = 0
Dangerous builds = 0

fix             3 all box/relax z 0.0 vmax 0.001
min_style       cg
minimize        0.0 1.0e-8 1000 2000
Switching to 'neigh_modify every 1 delay 0 check yes' setting during minimization
WARNING: Energy due to 3 extra global DOFs will be included in minimizer energies
 (src/min.cpp:219)
Per MPI rank memory allocation (min/avg/max) = 5.628 | 5.628 | 5.628 Mbytes
   Step          Time           Temp          Fnorm          PotEng         KinEng           Lx             Ly             Lz            Pxx            Pyy            Pzz            Pxy            Pxz            Pyz      
      2198   2.198          6.0374916e-20  6.7981902e-09 -3296.6189      2.4816944e-21  4.9770056      4.3102133      216.71446     -1897.443      -1897.443       3.5928414e-07  4.9513814e-07  1.7217826e-11  9.3531056e-10
      2200   2.2            6.0374916e-20  4.9065432e-09 -3296.6189      2.4816944e-21  4.9770056      4.3102133      216.71446     -1897.443      -1897.443       1.5268003e-08  4.9548648e-07 -5.0735193e-11  6.475696e-10 
Loop time of 0.0359089 on 2 procs for 2 steps with 319 atoms

99.1% CPU use with 1 MPI tasks x 2 OpenMP threads

Minimization stats:
  Stopping criterion = force tolerance
  Energy initial, next-to-last, final = 
     -3296.61894332603  -3296.61894332603  -3296.61894332603
  Force two-norm initial, final = 6.8776615e-09 4.9067432e-09
  Force max component initial, final = 1.1611724e-09 1.2178362e-09
  Final line search alpha, max atom move = 1 1.2178362e-09
  Iterations, force evaluations = 2 4

MPI task timing breakdown:
Section |  min time  |  avg time  |  max time  |%varavg| %total
---------------------------------------------------------------
Pair    | 0.035354   | 0.035354   | 0.035354   |   0.0 | 98.46
Neigh   | 0          | 0          | 0          |   0.0 |  0.00
Comm    | 0.00017073 | 0.00017073 | 0.00017073 |   0.0 |  0.48
Output  | 0          | 0          | 0          |   0.0 |  0.00
Modify  | 0          | 0          | 0          |   0.0 |  0.00
Other   |            | 0.0003838  |            |       |  1.07

Nlocal:            319 ave         319 max         319 min
Histogram: 1 0 0 0 0 0 0 0 0 0
Nghost:           6797 ave        6797 max        6797 min
Histogram: 1 0 0 0 0 0 0 0 0 0
Neighs:              0 ave           0 max           0 min
Histogram: 1 0 0 0 0 0 0 0 0 0
FullNghs:        36144 ave       36144 max       36144 min
Histogram: 1 0 0 0 0 0 0 0 0 0

Total # of neighbors = 36144
Ave neighs/atom = 113.30408
Neighbor list builds = 0
Dangerous builds = 0
unfix           3
min_style       fire
minimize        0.0 1.0e-8 2000 4000
Switching to 'neigh_modify every 1 delay 0 check yes' setting during minimization
  Parameters for fire:
    dmax  delaystep dtgrow dtshrink alpha0 alphashrink tmax tmin   integrator   halfstepback   abcfire  
     0.1     20      1.1     0.5     0.25     0.99      10  0.02 eulerimplicit      yes          no     
Per MPI rank memory allocation (min/avg/max) = 4.503 | 4.503 | 4.503 Mbytes
   Step          Time           Temp          Fnorm          PotEng         KinEng           Lx             Ly             Lz            Pxx            Pyy            Pzz            Pxy            Pxz            Pyz      
      2200   2.2            0              4.9064384e-09 -3296.6189      0              4.9770056      4.3102133      216.71446     -1897.443      -1897.443       1.4770905e-08  4.9546719e-07 -2.1824551e-10  6.9109961e-10
      2201   2.201          2.8857674e-20  4.9010648e-09 -3296.6189      1.1861868e-21  4.9770056      4.3102133      216.71446     -1897.443      -1897.443       1.5360443e-08  4.954522e-07  -2.1311842e-10  7.0610303e-10
Loop time of 0.0184344 on 2 procs for 1 steps with 319 atoms

96.0% CPU use with 1 MPI tasks x 2 OpenMP threads

Minimization stats:
  Stopping criterion = force tolerance
  Energy initial, next-to-last, final = 
     -3296.61894332603  -3296.61894332603  -3296.61894332603
  Force two-norm initial, final = 4.9064384e-09 4.9010648e-09
  Force max component initial, final = 1.2178156e-09 1.2152616e-09
  Final line search alpha, max atom move = 0 0
  Iterations, force evaluations = 1 2

MPI task timing breakdown:
Section |  min time  |  avg time  |  max time  |%varavg| %total
---------------------------------------------------------------
Pair    | 0.01834    | 0.01834    | 0.01834    |   0.0 | 99.49
Neigh   | 0          | 0          | 0          |   0.0 |  0.00
Comm    | 5.6695e-05 | 5.6695e-05 | 5.6695e-05 |   0.0 |  0.31
Output  | 0          | 0          | 0          |   0.0 |  0.00
Modify  | 0          | 0          | 0          |   0.0 |  0.00
Other   |            | 3.723e-05  |            |       |  0.20

Nlocal:            319 ave         319 max         319 min
Histogram: 1 0 0 0 0 0 0 0 0 0
Nghost:           6797 ave        6797 max        6797 min
Histogram: 1 0 0 0 0 0 0 0 0 0
Neighs:              0 ave           0 max           0 min
Histogram: 1 0 0 0 0 0 0 0 0 0
FullNghs:        36144 ave       36144 max       36144 min
Histogram: 1 0 0 0 0 0 0 0 0 0

Total # of neighbors = 36144
Ave neighs/atom = 113.30408
Neighbor list builds = 0
Dangerous builds = 0

fix             3 all box/relax z 0.0 vmax 0.001
min_style       cg
minimize        0.0 1.0e-8 1000 2000
Switching to 'neigh_modify every 1 delay 0 check yes' setting during minimization
WARNING: Energy due to 3 extra global DOFs will be included in minimizer energies
 (src/min.cpp:219)
Per MPI rank memory allocation (min/avg/max) = 5.628 | 5.628 | 5.628 Mbytes
   Step          Time           Temp          Fnorm          PotEng         KinEng           Lx             Ly             Lz            Pxx            Pyy            Pzz            Pxy            Pxz            Pyz      
      2201   2.201          2.8857674e-20  4.9015838e-09 -3296.6189      1.1861868e-21  4.9770056      4.3102133      216.71446     -1897.443      -1897.443       1.5111894e-08  4.9544363e-07 -1.7562182e-10  6.6769772e-10
      2203   2.203          2.8857674e-20  5.4690601e-09 -3296.6189      1.1861868e-21  4.9770056      4.3102133      216.71446     -1897.443      -1897.443       4.4382137e-07  4.9553576e-07 -2.0806786e-10  2.6298555e-10
Loop time of 0.0318358 on 2 procs for 2 steps with 319 atoms

104.4% CPU use with 1 MPI tasks x 2 OpenMP threads

Minimization stats:
  Stopping criterion = force tolerance
  Energy initial, next-to-last, final = 
     -3296.61894332603  -3296.61894332603  -3296.61894332603
  Force two-norm initial, final = 4.9017799e-09 5.6186368e-09
  Force max component initial, final = 1.2157879e-09 2.2943104e-09
  Final line search alpha, max atom move = 1 2.2943104e-09
  Iterations, force evaluations = 2 4

MPI task timing breakdown:
Section |  min time  |  avg time  |  max time  |%varavg| %total
---------------------------------------------------------------
Pair    | 0.031482   | 0.031482   | 0.031482   |   0.0 | 98.89
Neigh   | 0          | 0          | 0          |   0.0 |  0.00
Comm    | 9.3668e-05 | 9.3668e-05 | 9.3668e-05 |   0.0 |  0.29
Output  | 0          | 0          | 0          |   0.0 |  0.00
Modify  | 0          | 0          | 0          |   0.0 |  0.00
Other   |            | 0.0002597  |            |       |  0.82

Nlocal:            319 ave         319 max         319 min
Histogram: 1 0 0 0 0 0 0 0 0 0
Nghost:           6797 ave        6797 max        6797 min
Histogram: 1 0 0 0 0 0 0 0 0 0
Neighs:              0 ave           0 max           0 min
Histogram: 1 0 0 0 0 0 0 0 0 0
FullNghs:        36144 ave       36144 max       36144 min
Histogram: 1 0 0 0 0 0 0 0 0 0

Total # of neighbors = 36144
Ave neighs/atom = 113.30408
Neighbor list builds = 0
Dangerous builds = 0
unfix           3
min_style       fire
minimize        0.0 1.0e-8 2000 4000
Switching to 'neigh_modify every 1 delay 0 check yes' setting during minimization
  Parameters for fire:
    dmax  delaystep dtgrow dtshrink alpha0 alphashrink tmax tmin   integrator   halfstepback   abcfire  
     0.1     20      1.1     0.5     0.25     0.99      10  0.02 eulerimplicit      yes          no     
Per MPI rank memory allocation (min/avg/max) = 4.503 | 4.503 | 4.503 Mbytes
   Step          Time           Temp          Fnorm          PotEng         KinEng           Lx             Ly             Lz            Pxx            Pyy            Pzz            Pxy            Pxz            Pyz      
      2203   2.203          0              5.4689628e-09 -3296.6189      0              4.9770056      4.3102133      216.71446     -1897.443      -1897.443       4.4448743e-07  4.9565422e-07 -2.777044e-10   2.5990308e-10
      2204   2.204          2.9330037e-20  5.4614883e-09 -3296.6189      1.2056031e-21  4.9770056      4.3102133      216.71446     -1897.443      -1897.443       4.4388565e-07  4.9570932e-07 -2.5865e-10     3.089141e-10 
Loop time of 0.0193144 on 2 procs for 1 steps with 319 atoms

101.4% CPU use with 1 MPI tasks x 2 OpenMP threads

Minimization stats:
  Stopping criterion = force tolerance
  Energy initial, next-to-last, final = 
     -3296.61894332603  -3296.61894332603  -3296.61894332603
  Force two-norm initial, final = 5.4689628e-09 5.4614883e-09
  Force max component initial, final = 2.2939853e-09 2.2890358e-09
  Final line search alpha, max atom move = 0 0
  Iterations, force evaluations = 1 2

MPI task timing breakdown:
Section |  min time  |  avg time  |  max time  |%varavg| %total
---------------------------------------------------------------
Pair    | 0.019221   | 0.019221   | 0.019221   |   0.0 | 99.52
Neigh   | 0          | 0          | 0          |   0.0 |  0.00
Comm    | 5.7108e-05 | 5.7108e-05 | 5.7108e-05 |   0.0 |  0.30
Output  | 0          | 0          | 0          |   0.0 |  0.00
Modify  | 0          | 0          | 0          |   0.0 |  0.00
Other   |            | 3.641e-05  |            |       |  0.19

Nlocal:            319 ave         319 max         319 min
Histogram: 1 0 0 0 0 0 0 0 0 0
Nghost:           6797 ave        6797 max        6797 min
Histogram: 1 0 0 0 0 0 0 0 0 0
Neighs:              0 ave           0 max           0 min
Histogram: 1 0 0 0 0 0 0 0 0 0
FullNghs:        36144 ave       36144 max       36144 min
Histogram: 1 0 0 0 0 0 0 0 0 0

Total # of neighbors = 36144
Ave neighs/atom = 113.30408
Neighbor list builds = 0
Dangerous builds = 0

fix             3 all box/relax z 0.0 vmax 0.001
min_style       cg
minimize        0.0 1.0e-8 1000 2000
Switching to 'neigh_modify every 1 delay 0 check yes' setting during minimization
WARNING: Energy due to 3 extra global DOFs will be included in minimizer energies
 (src/min.cpp:219)
Per MPI rank memory allocation (min/avg/max) = 5.628 | 5.628 | 5.628 Mbytes
   Step          Time           Temp          Fnorm          PotEng         KinEng           Lx             Ly             Lz            Pxx            Pyy            Pzz            Pxy            Pxz            Pyz      
      2204   2.204          2.9330037e-20  5.4617556e-09 -3296.6189      1.2056031e-21  4.9770056      4.3102133      216.71446     -1897.443      -1897.443       4.4431357e-07  4.9576319e-07 -4.4896437e-10  2.4186502e-10
      2206   2.206          2.9330037e-20  4.351569e-09  -3296.6189      1.2056031e-21  4.9770056      4.3102133      216.71446     -1897.443      -1897.443       1.8335071e-08  4.9584461e-07 -4.1070254e-10 -3.2921918e-11
Loop time of 0.0317532 on 2 procs for 2 steps with 319 atoms

103.9% CPU use with 1 MPI tasks x 2 OpenMP threads

Minimization stats:
  Stopping criterion = force tolerance
  Energy initial, next-to-last, final = 
     -3296.61894332603  -3296.61894332603  -3296.61894332603
  Force two-norm initial, final = 5.6118549e-09 4.3518942e-09
  Force max component initial, final = 2.2888412e-09 1.7829974e-09
  Final line search alpha, max atom move = 1 1.7829974e-09
  Iterations, force evaluations = 2 4

MPI task timing breakdown:
Section |  min time  |  avg time  |  max time  |%varavg| %total
---------------------------------------------------------------
Pair    | 0.031398   | 0.031398   | 0.031398   |   0.0 | 98.88
Neigh   | 0          | 0          | 0          |   0.0 |  0.00
Comm    | 9.5261e-05 | 9.5261e-05 | 9.5261e-05 |   0.0 |  0.30
Output  | 0          | 0          | 0          |   0.0 |  0.00
Modify  | 0          | 0          | 0          |   0.0 |  0.00
Other   |            | 0.0002597  |            |       |  0.82

Nlocal:            319 ave         319 max         319 min
Histogram: 1 0 0 0 0 0 0 0 0 0
Nghost:           6797 ave        6797 max        6797 min
Histogram: 1 0 0 0 0 0 0 0 0 0
Neighs:              0 ave           0 max           0 min
Histogram: 1 0 0 0 0 0 0 0 0 0
FullNghs:        36144 ave       36144 max       36144 min
Histogram: 1 0 0 0 0 0 0 0 0 0

Total # of neighbors = 36144
Ave neighs/atom = 113.30408
Neighbor list builds = 0
Dangerous builds = 0
unfix           3
min_style       fire
minimize        0.0 1.0e-8 2000 4000
Switching to 'neigh_modify every 1 delay 0 check yes' setting during minimization
  Parameters for fire:
    dmax  delaystep dtgrow dtshrink alpha0 alphashrink tmax tmin   integrator   halfstepback   abcfire  
     0.1     20      1.1     0.5     0.25     0.99      10  0.02 eulerimplicit      yes          no     
Per MPI rank memory allocation (min/avg/max) = 4.503 | 4.503 | 4.503 Mbytes
   Step          Time           Temp          Fnorm          PotEng         KinEng           Lx             Ly             Lz            Pxx            Pyy            Pzz            Pxy            Pxz            Pyz      
      2206   2.206          0              4.3518584e-09 -3296.6189      0              4.9770056      4.3102133      216.71446     -1897.443      -1897.443       1.8155088e-08  4.9589787e-07 -4.3358311e-10  1.442232e-11 
      2207   2.207          1.9411564e-20  4.3476427e-09 -3296.6189      7.9790701e-22  4.9770056      4.3102133      216.71446     -1897.443      -1897.443       1.8524238e-08  4.9597807e-07 -4.3113436e-10 -1.2784236e-11
Loop time of 0.0191681 on 2 procs for 1 steps with 319 atoms

104.6% CPU use with 1 MPI tasks x 2 OpenMP threads

Minimization stats:
  Stopping criterion = force tolerance
  Energy initial, next-to-last, final = 
     -3296.61894332603  -3296.61894332603  -3296.61894332603
  Force two-norm initial, final = 4.3518584e-09 4.3476427e-09
  Force max component initial, final = 1.783293e-09 1.7794642e-09
  Final line search alpha, max atom move = 0 0
  Iterations, force evaluations = 1 2

MPI task timing breakdown:
Section |  min time  |  avg time  |  max time  |%varavg| %total
---------------------------------------------------------------
Pair    | 0.019076   | 0.019076   | 0.019076   |   0.0 | 99.52
Neigh   | 0          | 0          | 0          |   0.0 |  0.00
Comm    | 5.6399e-05 | 5.6399e-05 | 5.6399e-05 |   0.0 |  0.29
Output  | 0          | 0          | 0          |   0.0 |  0.00
Modify  | 0          | 0          | 0          |   0.0 |  0.00
Other   |            | 3.579e-05  |            |       |  0.19

Nlocal:            319 ave         319 max         319 min
Histogram: 1 0 0 0 0 0 0 0 0 0
Nghost:           6797 ave        6797 max        6797 min
Histogram: 1 0 0 0 0 0 0 0 0 0
Neighs:              0 ave           0 max           0 min
Histogram: 1 0 0 0 0 0 0 0 0 0
FullNghs:        36144 ave       36144 max       36144 min
Histogram: 1 0 0 0 0 0 0 0 0 0

Total # of neighbors = 36144
Ave neighs/atom = 113.30408
Neighbor list builds = 0
Dangerous builds = 0


write_data      fire_cg_${name}.data
write_data      fire_cg_lmps.data
System init for write_data ...

write_data      bi_minimised.data
System init for write_data ...

print """- step: $(step)
  atoms: $(atoms)
  temp: $(temp)
  press: $(press)
  pe: $(pe)
  ke: $(ke)
  etotal: $(etotal)
  vol: $(vol)
  avecx: $(avecx)
  avecy: $(avecy)
  avecz: $(avecz)
  bvecx: $(bvecx)
  bvecy: $(bvecy)
  bvecz: $(bvecz)
  cvecx: $(cvecx)
  cvecy: $(cvecy)
  cvecz: $(cvecz)
  lx: $(lx)
  ly: $(ly)
  lz: $(lz)
  cella: $(cella)
  cellb: $(cellb)
  cellc: $(cellc)
  cellalpha: $(cellalpha)
  cellbeta: $(cellbeta)
  cellgamma: $(cellgamma)
  pxx: $(pxx)
  pyy: $(pyy)
  pzz: $(pzz)
  pxy: $(pxy)
  pyz: $(pyz)
  pxz: $(pxz)
  xlo: $(xlo)
  xhi: $(xhi)
  ylo: $(ylo)
  yhi: $(yhi)
  zlo: $(zlo)
  zhi: $(zhi)
  xy: $(xy)
  xz: $(xz)
  yz: $(yz)
""" file bi_minimised.data.yaml screen yes universe no
- step: 2207
  atoms: 319
  temp: 1.9411563813714603148e-20
  press: -1264.9620121463974556
  pe: -3296.6189433260278747
  ke: 7.9790701392952587089e-22
  etotal: -3296.6189433260278747
  vol: 4648.9491123290908945
  avecx: 4.9770056176543331361
  avecy: 0
  avecz: 0
  bvecx: -2.4885028088300003013
  bvecy: 4.3102132996662358977
  bvecz: 0
  cvecx: 0
  cvecy: 0
  cvecz: 216.71446437941602881
  lx: 4.9770056176543331361
  ly: 4.3102132996662358977
  lz: 216.71446437941602881
  cella: 4.9770056176543331361
  cellb: 4.9770056176555090843
  cellc: 216.71446437941602881
  cellalpha: 90
  cellbeta: 90
  cellgamma: 120.00000000002985701
  pxx: -1897.4430182774615332
  pyy: -1897.4430181802551942
  pzz: 1.8524237857493483621e-08
  pxy: 4.9597806632074156936e-07
  pyz: -1.2784235628144729005e-11
  pxz: -4.3113435707570686843e-10
  xlo: -0.019038925427171102256
  xhi: 4.9579666922271616869
  ylo: -0.016488193083117452103
  yhi: 4.293725106583118567
  zlo: -6.1984592627584698121
  zhi: 210.51600511665756699
  xy: -2.4885028088300003013
  xz: 0
  yz: 0

[GRACE:debug, proc #0]: Data preparation timer: 1.48873e+06 mcs, graph execution time: 2.32337e+07 mcs, data preparation time fraction: 6.02 %
Total wall time: 0:00:28
