
thermo          10
thermo_style    custom step time temp fnorm pe ke lx ly lz pxx pyy pzz pxy pxz pyz

timestep        0.001

min_style       fire
minimize        0.0 1.0e-8 2000 4000

CITE-CITE-CITE-CITE-CITE-CITE-CITE-CITE-CITE-CITE-CITE-CITE-CITE

Your simulation uses code contributions which should be cited:

- Type Label Framework: https://doi.org/10.1021/acs.jpcb.3c08419

@Article{Gissinger24,
 author = {Jacob R. Gissinger, Ilia Nikiforov, Yaser Afshar, Brendon Waters, Moon-ki Choi, Daniel S. Karls, Alexander Stukowski, Wonpil Im, Hendrik Heinz, Axel Kohlmeyer, and Ellad B. Tadmor},
 title = {Type Label Framework for Bonded Force Fields in LAMMPS},
 journal = {J. Phys. Chem. B},
 year =    2024,
 volume =  128,
 number =  13,
 pages =   {3282–-3297}
}

CITE-CITE-CITE-CITE-CITE-CITE-CITE-CITE-CITE-CITE-CITE-CITE-CITE

Switching to 'neigh_modify every 1 delay 0 check yes' setting during minimization
Neighbor list info ...
  update: every = 1 steps, delay = 0 steps, check = yes
  max neighbors/atom: 2000, page size: 100000
  master list distance cutoff = 7.4
  ghost atom cutoff = 7.4
  binsize = 3.7, bins = 10 6 36
  1 neighbor lists, perpetual/occasional/extra = 1 0 0
  (1) pair grace, perpetual
      attributes: full, newton on
      pair build: full/bin/atomonly
      stencil: full/bin/3d
      bin: standard
  Parameters for fire:
    dmax  delaystep dtgrow dtshrink alpha0 alphashrink tmax tmin   integrator   halfstepback   abcfire  
     0.1     20      1.1     0.5     0.25     0.99      10  0.02 eulerimplicit      yes          no     
[GRACE] Atoms padding: new num. of atoms = 4924 (incl. 0.995% fake atoms)
[GRACE] Neighbours padding: extending new num. of neighbours = 313605 (incl. 0.990% fake neighbours)
Per MPI rank memory allocation (min/avg/max) = 6.15 | 6.15 | 6.15 Mbytes
   Step          Time           Temp          Fnorm          PotEng         KinEng           Lx             Ly             Lz            Pxx            Pyy            Pzz            Pxy            Pxz            Pyz      
         0   0              0              3.6185541     -50256.97       0              24.270655      21.019004      133.08612      118147.49      118147.49      63820.816      3.6515642e-06  2.4024915e-07  1.5908152e-08
        10   0.01           0.0469115      3.4838979     -50257.008      0.029554899    24.270655      21.019004      133.08612      118130.08      118130.08      63839.042      3.6478586e-06  2.3966939e-07  1.5900008e-08
        20   0.02           0.17039163     3.176255      -50257.101      0.1073491      24.270655      21.019004      133.08612      118085.75      118085.75      63876.74       3.6402919e-06  2.4012142e-07  1.5805468e-08
        30   0.070738431    0.44025092     2.4856452     -50257.31       0.27736422     24.270655      21.019004      133.08612      117973.59      117973.59      63964.708      3.6225983e-06  2.4147697e-07  1.6125385e-08
        40   0.24463636     0.93308471     0.50138791    -50257.732      0.58785638     24.270655      21.019004      133.08612      117618.57      117618.57      64183.6        3.5905782e-06  2.3740275e-07  1.6502183e-08
        50   0.18500625     0.0014505173   0.12092881    -50257.754      0.00091384615  24.270655      21.019004      133.08612      117543.19      117543.19      64173.986      3.60093e-06    2.3815822e-07  1.651772e-08 
        60   0.2220075      0.0020371719   0.013813884   -50257.755      0.0012834467   24.270655      21.019004      133.08612      117559.11      117559.11      64152.431      3.6019154e-06  2.423058e-07   1.6828481e-08
        70   0.12950437     4.6208534e-07  0.0070413678  -50257.755      2.9112021e-07  24.270655      21.019004      133.08612      117559.61      117559.61      64151.585      3.6015879e-06  2.421959e-07   1.681328e-08 
        80   0.148005       1.9625444e-06  0.0055674978  -50257.755      1.2364303e-06  24.270655      21.019004      133.08612      117559.43      117559.43      64151.8        3.6015858e-06  2.4214856e-07  1.6812008e-08
        90   0.32447236     4.0320991e-06  0.0027949013  -50257.755      2.5402787e-06  24.270655      21.019004      133.08612      117559.07      117559.07      64152.319      3.6014624e-06  2.4208031e-07  1.6785487e-08
       100   0.31934587     1.1654821e-09  0.00038553235 -50257.755      7.3426995e-10  24.270655      21.019004      133.08612      117558.69      117558.69      64152.96       3.6013509e-06  2.4211209e-07  1.6823337e-08
       110   0.35128046     9.7570407e-09  0.00021321241 -50257.755      6.1470717e-09  24.270655      21.019004      133.08612      117558.72      117558.72      64152.929      3.601356e-06   2.4218126e-07  1.6769063e-08
       120   0.51005923     1.1760737e-08  1.5481414e-05 -50257.755      7.4094284e-09  24.270655      21.019004      133.08612      117558.74      117558.74      64152.887      3.6013518e-06  2.4217301e-07  1.6795229e-08
       130   0.30391029     1.7297228e-12  1.0758227e-05 -50257.755      1.0897495e-12  24.270655      21.019004      133.08612      117558.74      117558.74      64152.885      3.6013227e-06  2.4211142e-07  1.6847527e-08
       140   0.32728801     6.1344452e-12  7.9780902e-06 -50257.755      3.864786e-12   24.270655      21.019004      133.08612      117558.74      117558.74      64152.885      3.6013228e-06  2.4213979e-07  1.6828895e-08
       150   0.75168311     1.1505299e-11  2.3410717e-06 -50257.755      7.2484989e-12  24.270655      21.019004      133.08612      117558.74      117558.74      64152.886      3.6013655e-06  2.421808e-07   1.6783975e-08
       160   0.53359479     3.905229e-15   4.7863173e-07 -50257.755      2.4603487e-15  24.270655      21.019004      133.08612      117558.74      117558.74      64152.887      3.6013779e-06  2.4216101e-07  1.6780676e-08
       170   0.56694446     1.6543026e-14  2.9075985e-07 -50257.755      1.0422337e-14  24.270655      21.019004      133.08612      117558.74      117558.74      64152.887      3.60133e-06    2.4218136e-07  1.6810278e-08
       180   1.0634577      2.0847176e-14  3.0300902e-08 -50257.755      1.3134012e-14  24.270655      21.019004      133.08612      117558.74      117558.74      64152.887      3.6013373e-06  2.4216156e-07  1.6826024e-08
       190   0.56126933     8.4120827e-18  1.6877433e-08 -50257.755      5.2997294e-18  24.270655      21.019004      133.08612      117558.74      117558.74      64152.887      3.6013658e-06  2.4212471e-07  1.6791811e-08
       200   0.59080982     2.5293187e-17  1.0389251e-08 -50257.755      1.593506e-17   24.270655      21.019004      133.08612      117558.74      117558.74      64152.887      3.6013547e-06  2.4213194e-07  1.679248e-08 
       201   0.59376387     2.687456e-17   9.5835819e-09 -50257.755      1.6931347e-17  24.270655      21.019004      133.08612      117558.74      117558.74      64152.887      3.6013265e-06  2.4217767e-07  1.6808901e-08
Loop time of 20.9656 on 1 procs for 201 steps with 4875 atoms

82.1% CPU use with 1 MPI tasks x 1 OpenMP threads

Minimization stats:
  Stopping criterion = force tolerance
  Energy initial, next-to-last, final = 
     -50256.9695166805  -50257.7547409492  -50257.7547409494
  Force two-norm initial, final = 3.6185541 9.5835819e-09
  Force max component initial, final = 0.12165535 2.5189807e-10
  Final line search alpha, max atom move = 0 0
  Iterations, force evaluations = 201 208

MPI task timing breakdown:
Section |  min time  |  avg time  |  max time  |%varavg| %total
---------------------------------------------------------------
Pair    | 20.929     | 20.929     | 20.929     |   0.0 | 99.83
Neigh   | 0          | 0          | 0          |   0.0 |  0.00
Comm    | 0.015884   | 0.015884   | 0.015884   |   0.0 |  0.08
Output  | 0.0014592  | 0.0014592  | 0.0014592  |   0.0 |  0.01
Modify  | 0          | 0          | 0          |   0.0 |  0.00
Other   |            | 0.01913    |            |       |  0.09

Nlocal:           4875 ave        4875 max        4875 min
Histogram: 1 0 0 0 0 0 0 0 0 0
Nghost:          11117 ave       11117 max       11117 min
Histogram: 1 0 0 0 0 0 0 0 0 0
Neighs:              0 ave           0 max           0 min
Histogram: 1 0 0 0 0 0 0 0 0 0
FullNghs:       598500 ave      598500 max      598500 min
Histogram: 1 0 0 0 0 0 0 0 0 0

Total # of neighbors = 598500
Ave neighs/atom = 122.76923
Neighbor list builds = 0
Dangerous builds = 0

#write_data      fire_${name}.data

fix             3 all box/relax z 0.0 vmax 0.001
min_style       cg
minimize        0.0 1.0e-8 1000 2000
Switching to 'neigh_modify every 1 delay 0 check yes' setting during minimization
WARNING: Energy due to 3 extra global DOFs will be included in minimizer energies
 (src/min.cpp:219)
Per MPI rank memory allocation (min/avg/max) = 7.275 | 7.275 | 7.275 Mbytes
   Step          Time           Temp          Fnorm          PotEng         KinEng           Lx             Ly             Lz            Pxx            Pyy            Pzz            Pxy            Pxz            Pyz      
       201   0.201          2.687456e-17   9.5836993e-09 -50257.755      1.6931347e-17  24.270655      21.019004      133.08612      117558.74      117558.74      64152.887      3.6012446e-06  2.4208755e-07  1.6738487e-08
       210   0.21           2.687456e-17   1.8356299     -50277.356      1.6931347e-17  24.270655      21.019004      134.28389      101799.59      101799.59      38839.955      3.4903799e-06  2.5078239e-07  1.7418768e-08
       220   0.22           2.687456e-17   3.8177215     -50288.086      1.6931347e-17  24.270655      21.019004      135.61476      85075.898      85075.898      12008.17       3.3824168e-06  2.5732073e-07  1.7810191e-08
       230   0.23           2.687456e-17   0.23971356    -50289.888      1.6931347e-17  24.270655      21.019004      136.293        76793.254      76793.254      23.882818      3.3311114e-06  2.6486942e-07  1.8393281e-08
       240   0.24           2.687456e-17   0.021911278   -50289.891      1.6931347e-17  24.270655      21.019004      136.29537      76777.658      76777.658     -1.9826157      3.3298866e-06  2.6530319e-07  1.8418853e-08
       250   0.25           2.687456e-17   0.019387919   -50289.891      1.6931347e-17  24.270655      21.019004      136.29547      76777.68       76777.68      -2.0244747      3.3297877e-06  2.6515779e-07  1.8456896e-08
       260   0.26           2.687456e-17   0.0084276432  -50289.891      1.6931347e-17  24.270655      21.019004      136.29542      76778.643      76778.643      1.8659915      3.3295146e-06  2.6597886e-07  1.844248e-08 
       270   0.27           2.687456e-17   0.0096139067  -50289.891      1.6931347e-17  24.270655      21.019004      136.29549      76777.363      76777.363      0.23176528     3.3295332e-06  2.6623875e-07  1.840841e-08 
       280   0.28           2.687456e-17   0.0090257432  -50289.891      1.6931347e-17  24.270655      21.019004      136.29548      76777.263      76777.263      0.13282843     3.3295374e-06  2.6626391e-07  1.8436886e-08
       290   0.29           2.687456e-17   0.0076224346  -50289.891      1.6931347e-17  24.270655      21.019004      136.29547      76777.232      76777.232      0.049281351    3.3295811e-06  2.6630278e-07  1.8409784e-08
       300   0.3            2.687456e-17   0.0029161528  -50289.891      1.6931347e-17  24.270655      21.019004      136.29547      76777.475      76777.475     -0.96735577     3.3298973e-06  2.6527923e-07  1.8352009e-08
       310   0.31           2.687456e-17   2.0406739e-05 -50289.891      1.6931347e-17  24.270655      21.019004      136.29544      76777.826      76777.826     -0.004146192    3.3297625e-06  2.656503e-07   1.8437146e-08
       320   0.32           2.687456e-17   1.3902128e-07 -50289.891      1.6931347e-17  24.270655      21.019004      136.29544      76777.831      76777.831     -6.5787823e-08  3.3297659e-06  2.6572268e-07  1.8433688e-08
       330   0.33           2.687456e-17   3.388814e-08  -50289.891      1.6931347e-17  24.270655      21.019004      136.29544      76777.831      76777.831     -4.3159658e-08  3.3297412e-06  2.6572903e-07  1.8385894e-08
       340   0.34           2.687456e-17   5.1586094e-09 -50289.891      1.6931347e-17  24.270655      21.019004      136.29544      76777.831      76777.831     -4.8057201e-08  3.3297265e-06  2.6574876e-07  1.8368091e-08
Loop time of 23.5232 on 1 procs for 139 steps with 4875 atoms

89.7% CPU use with 1 MPI tasks x 1 OpenMP threads

Minimization stats:
  Stopping criterion = force tolerance
  Energy initial, next-to-last, final = 
     -50257.7547409494  -50289.8911496302  -50289.8911496298
  Force two-norm initial, final = 2718.5182 5.5460251e-09
  Force max component initial, final = 2718.5182 2.0364536e-09
  Final line search alpha, max atom move = 1 2.0364536e-09
  Iterations, force evaluations = 139 255

MPI task timing breakdown:
Section |  min time  |  avg time  |  max time  |%varavg| %total
---------------------------------------------------------------
Pair    | 23.392     | 23.392     | 23.392     |   0.0 | 99.44
Neigh   | 0.05121    | 0.05121    | 0.05121    |   0.0 |  0.22
Comm    | 0.014735   | 0.014735   | 0.014735   |   0.0 |  0.06
Output  | 0.00078379 | 0.00078379 | 0.00078379 |   0.0 |  0.00
Modify  | 0          | 0          | 0          |   0.0 |  0.00
Other   |            | 0.06412    |            |       |  0.27

Nlocal:           4875 ave        4875 max        4875 min
Histogram: 1 0 0 0 0 0 0 0 0 0
Nghost:          11117 ave       11117 max       11117 min
Histogram: 1 0 0 0 0 0 0 0 0 0
Neighs:              0 ave           0 max           0 min
Histogram: 1 0 0 0 0 0 0 0 0 0
FullNghs:       571500 ave      571500 max      571500 min
Histogram: 1 0 0 0 0 0 0 0 0 0

Total # of neighbors = 571500
Ave neighs/atom = 117.23077
Neighbor list builds = 4
Dangerous builds = 0
unfix           3
min_style       fire
minimize        0.0 1.0e-8 2000 4000
Switching to 'neigh_modify every 1 delay 0 check yes' setting during minimization
  Parameters for fire:
    dmax  delaystep dtgrow dtshrink alpha0 alphashrink tmax tmin   integrator   halfstepback   abcfire  
     0.1     20      1.1     0.5     0.25     0.99      10  0.02 eulerimplicit      yes          no     
Per MPI rank memory allocation (min/avg/max) = 6.151 | 6.151 | 6.151 Mbytes
   Step          Time           Temp          Fnorm          PotEng         KinEng           Lx             Ly             Lz            Pxx            Pyy            Pzz            Pxy            Pxz            Pyz      
       340   0.34           0              5.1584595e-09 -50289.891      0              24.270655      21.019004      136.29544      76777.831      76777.831     -4.8106853e-08  3.3297179e-06  2.6574983e-07  1.8398323e-08
       341   0.341          1.4413738e-21  5.1562935e-09 -50289.891      9.0808562e-22  24.270655      21.019004      136.29544      76777.831      76777.831     -4.7338964e-08  3.329739e-06   2.657535e-07   1.8358588e-08
Loop time of 0.2549 on 1 procs for 1 steps with 4875 atoms

97.1% CPU use with 1 MPI tasks x 1 OpenMP threads

Minimization stats:
  Stopping criterion = force tolerance
  Energy initial, next-to-last, final = 
     -50289.8911496299  -50289.8911496299  -50289.8911496299
  Force two-norm initial, final = 5.1584595e-09 5.1562935e-09
  Force max component initial, final = 1.5095074e-10 1.508732e-10
  Final line search alpha, max atom move = 0 0
  Iterations, force evaluations = 1 2

MPI task timing breakdown:
Section |  min time  |  avg time  |  max time  |%varavg| %total
---------------------------------------------------------------
Pair    | 0.25446    | 0.25446    | 0.25446    |   0.0 | 99.83
Neigh   | 0          | 0          | 0          |   0.0 |  0.00
Comm    | 0.00020044 | 0.00020044 | 0.00020044 |   0.0 |  0.08
Output  | 0          | 0          | 0          |   0.0 |  0.00
Modify  | 0          | 0          | 0          |   0.0 |  0.00
Other   |            | 0.0002401  |            |       |  0.09

Nlocal:           4875 ave        4875 max        4875 min
Histogram: 1 0 0 0 0 0 0 0 0 0
Nghost:          11117 ave       11117 max       11117 min
Histogram: 1 0 0 0 0 0 0 0 0 0
Neighs:              0 ave           0 max           0 min
Histogram: 1 0 0 0 0 0 0 0 0 0
FullNghs:       571500 ave      571500 max      571500 min
Histogram: 1 0 0 0 0 0 0 0 0 0

Total # of neighbors = 571500
Ave neighs/atom = 117.23077
Neighbor list builds = 0
Dangerous builds = 0

fix             3 all box/relax z 0.0 vmax 0.001
min_style       cg
minimize        0.0 1.0e-8 1000 2000
Switching to 'neigh_modify every 1 delay 0 check yes' setting during minimization
WARNING: Energy due to 3 extra global DOFs will be included in minimizer energies
 (src/min.cpp:219)
Per MPI rank memory allocation (min/avg/max) = 7.276 | 7.276 | 7.276 Mbytes
   Step          Time           Temp          Fnorm          PotEng         KinEng           Lx             Ly             Lz            Pxx            Pyy            Pzz            Pxy            Pxz            Pyz      
       341   0.341          1.4413738e-21  5.1562453e-09 -50289.891      9.0808562e-22  24.270655      21.019004      136.29544      76777.831      76777.831     -4.7396597e-08  3.3297318e-06  2.6574859e-07  1.8380278e-08
       344   0.344          1.4413738e-21  4.4138937e-09 -50289.891      9.0808562e-22  24.270655      21.019004      136.29544      76777.831      76777.831      2.449091e-08   3.3297665e-06  2.6571921e-07  1.8417216e-08
Loop time of 0.593274 on 1 procs for 3 steps with 4875 atoms

91.6% CPU use with 1 MPI tasks x 1 OpenMP threads

Minimization stats:
  Stopping criterion = force tolerance
  Energy initial, next-to-last, final = 
     -50289.8911496299  -50289.8911496325  -50289.8911496307
  Force two-norm initial, final = 5.5513671e-09 4.5400545e-09
  Force max component initial, final = 2.0568933e-09 1.062844e-09
  Final line search alpha, max atom move = 1 1.062844e-09
  Iterations, force evaluations = 3 6

MPI task timing breakdown:
Section |  min time  |  avg time  |  max time  |%varavg| %total
---------------------------------------------------------------
Pair    | 0.5913     | 0.5913     | 0.5913     |   0.0 | 99.67
Neigh   | 0          | 0          | 0          |   0.0 |  0.00
Comm    | 0.00041023 | 0.00041023 | 0.00041023 |   0.0 |  0.07
Output  | 0          | 0          | 0          |   0.0 |  0.00
Modify  | 0          | 0          | 0          |   0.0 |  0.00
Other   |            | 0.001563   |            |       |  0.26

Nlocal:           4875 ave        4875 max        4875 min
Histogram: 1 0 0 0 0 0 0 0 0 0
Nghost:          11117 ave       11117 max       11117 min
Histogram: 1 0 0 0 0 0 0 0 0 0
Neighs:              0 ave           0 max           0 min
Histogram: 1 0 0 0 0 0 0 0 0 0
FullNghs:       571500 ave      571500 max      571500 min
Histogram: 1 0 0 0 0 0 0 0 0 0

Total # of neighbors = 571500
Ave neighs/atom = 117.23077
Neighbor list builds = 0
Dangerous builds = 0
unfix           3
min_style       fire
minimize        0.0 1.0e-8 2000 4000
Switching to 'neigh_modify every 1 delay 0 check yes' setting during minimization
  Parameters for fire:
    dmax  delaystep dtgrow dtshrink alpha0 alphashrink tmax tmin   integrator   halfstepback   abcfire  
     0.1     20      1.1     0.5     0.25     0.99      10  0.02 eulerimplicit      yes          no     
Per MPI rank memory allocation (min/avg/max) = 6.151 | 6.151 | 6.151 Mbytes
   Step          Time           Temp          Fnorm          PotEng         KinEng           Lx             Ly             Lz            Pxx            Pyy            Pzz            Pxy            Pxz            Pyz      
       344   0.344          0              4.4143501e-09 -50289.891      0              24.270655      21.019004      136.29544      76777.831      76777.831      2.4469462e-08  3.3297745e-06  2.6572503e-07  1.8414965e-08
       345   0.345          1.1382025e-21  4.4104713e-09 -50289.891      7.1708342e-22  24.270655      21.019004      136.29544      76777.831      76777.831      2.5167439e-08  3.3297666e-06  2.6571154e-07  1.8411733e-08
Loop time of 0.263301 on 1 procs for 1 steps with 4875 atoms

93.5% CPU use with 1 MPI tasks x 1 OpenMP threads

Minimization stats:
  Stopping criterion = force tolerance
  Energy initial, next-to-last, final = 
     -50289.8911496306  -50289.8911496306  -50289.8911496306
  Force two-norm initial, final = 4.4143501e-09 4.4104713e-09
  Force max component initial, final = 1.3040036e-10 1.3039597e-10
  Final line search alpha, max atom move = 0 0
  Iterations, force evaluations = 1 2

MPI task timing breakdown:
Section |  min time  |  avg time  |  max time  |%varavg| %total
---------------------------------------------------------------
Pair    | 0.26287    | 0.26287    | 0.26287    |   0.0 | 99.84
Neigh   | 0          | 0          | 0          |   0.0 |  0.00
Comm    | 0.00019606 | 0.00019606 | 0.00019606 |   0.0 |  0.07
Output  | 0          | 0          | 0          |   0.0 |  0.00
Modify  | 0          | 0          | 0          |   0.0 |  0.00
Other   |            | 0.0002383  |            |       |  0.09

Nlocal:           4875 ave        4875 max        4875 min
Histogram: 1 0 0 0 0 0 0 0 0 0
Nghost:          11117 ave       11117 max       11117 min
Histogram: 1 0 0 0 0 0 0 0 0 0
Neighs:              0 ave           0 max           0 min
Histogram: 1 0 0 0 0 0 0 0 0 0
FullNghs:       571500 ave      571500 max      571500 min
Histogram: 1 0 0 0 0 0 0 0 0 0

Total # of neighbors = 571500
Ave neighs/atom = 117.23077
Neighbor list builds = 0
Dangerous builds = 0

fix             3 all box/relax z 0.0 vmax 0.001
min_style       cg
minimize        0.0 1.0e-8 1000 2000
Switching to 'neigh_modify every 1 delay 0 check yes' setting during minimization
WARNING: Energy due to 3 extra global DOFs will be included in minimizer energies
 (src/min.cpp:219)
Per MPI rank memory allocation (min/avg/max) = 7.276 | 7.276 | 7.276 Mbytes
   Step          Time           Temp          Fnorm          PotEng         KinEng           Lx             Ly             Lz            Pxx            Pyy            Pzz            Pxy            Pxz            Pyz      
       345   0.345          1.1382025e-21  4.411508e-09  -50289.891      7.1708342e-22  24.270655      21.019004      136.29544      76777.831      76777.831      2.527288e-08   3.3297344e-06  2.6570271e-07  1.8414823e-08
       347   0.347          1.1382025e-21  1.7882686e-09 -50289.891      7.1708342e-22  24.270655      21.019004      136.29544      76777.831      76777.831      7.8495773e-08  3.3297852e-06  2.6570945e-07  1.8387596e-08
Loop time of 0.424243 on 1 procs for 2 steps with 4875 atoms

98.1% CPU use with 1 MPI tasks x 1 OpenMP threads

Minimization stats:
  Stopping criterion = force tolerance
  Energy initial, next-to-last, final = 
     -50289.8911496307  -50289.8911496325  -50289.8911496315
  Force two-norm initial, final = 4.5458033e-09 3.8473731e-09
  Force max component initial, final = 1.0967796e-09 3.4065195e-09
  Final line search alpha, max atom move = 1 3.4065195e-09
  Iterations, force evaluations = 2 4

MPI task timing breakdown:
Section |  min time  |  avg time  |  max time  |%varavg| %total
---------------------------------------------------------------
Pair    | 0.42298    | 0.42298    | 0.42298    |   0.0 | 99.70
Neigh   | 0          | 0          | 0          |   0.0 |  0.00
Comm    | 0.00025309 | 0.00025309 | 0.00025309 |   0.0 |  0.06
Output  | 0          | 0          | 0          |   0.0 |  0.00
Modify  | 0          | 0          | 0          |   0.0 |  0.00
Other   |            | 0.001014   |            |       |  0.24

Nlocal:           4875 ave        4875 max        4875 min
Histogram: 1 0 0 0 0 0 0 0 0 0
Nghost:          11117 ave       11117 max       11117 min
Histogram: 1 0 0 0 0 0 0 0 0 0
Neighs:              0 ave           0 max           0 min
Histogram: 1 0 0 0 0 0 0 0 0 0
FullNghs:       571500 ave      571500 max      571500 min
Histogram: 1 0 0 0 0 0 0 0 0 0

Total # of neighbors = 571500
Ave neighs/atom = 117.23077
Neighbor list builds = 0
Dangerous builds = 0
unfix           3
min_style       fire
minimize        0.0 1.0e-8 2000 4000
Switching to 'neigh_modify every 1 delay 0 check yes' setting during minimization
  Parameters for fire:
    dmax  delaystep dtgrow dtshrink alpha0 alphashrink tmax tmin   integrator   halfstepback   abcfire  
     0.1     20      1.1     0.5     0.25     0.99      10  0.02 eulerimplicit      yes          no     
Per MPI rank memory allocation (min/avg/max) = 6.151 | 6.151 | 6.151 Mbytes
   Step          Time           Temp          Fnorm          PotEng         KinEng           Lx             Ly             Lz            Pxx            Pyy            Pzz            Pxy            Pxz            Pyz      
       347   0.347          0              1.7886232e-09 -50289.891      0              24.270655      21.019004      136.29544      76777.831      76777.831      7.8111501e-08  3.329824e-06   2.657599e-07   1.8385834e-08
       348   0.348          1.5234331e-22  1.7884426e-09 -50289.891      9.5978408e-23  24.270655      21.019004      136.29544      76777.831      76777.831      7.8603998e-08  3.3298346e-06  2.6574851e-07  1.8372643e-08
Loop time of 0.275359 on 1 procs for 1 steps with 4875 atoms

90.1% CPU use with 1 MPI tasks x 1 OpenMP threads

Minimization stats:
  Stopping criterion = force tolerance
  Energy initial, next-to-last, final = 
     -50289.8911496315  -50289.8911496315  -50289.8911496315
  Force two-norm initial, final = 1.7886232e-09 1.7884426e-09
  Force max component initial, final = 5.3587974e-11 5.3587988e-11
  Final line search alpha, max atom move = 0 0
  Iterations, force evaluations = 1 2

MPI task timing breakdown:
Section |  min time  |  avg time  |  max time  |%varavg| %total
---------------------------------------------------------------
Pair    | 0.27472    | 0.27472    | 0.27472    |   0.0 | 99.77
Neigh   | 0          | 0          | 0          |   0.0 |  0.00
Comm    | 0.00030051 | 0.00030051 | 0.00030051 |   0.0 |  0.11
Output  | 0          | 0          | 0          |   0.0 |  0.00
Modify  | 0          | 0          | 0          |   0.0 |  0.00
Other   |            | 0.0003376  |            |       |  0.12

Nlocal:           4875 ave        4875 max        4875 min
Histogram: 1 0 0 0 0 0 0 0 0 0
Nghost:          11117 ave       11117 max       11117 min
Histogram: 1 0 0 0 0 0 0 0 0 0
Neighs:              0 ave           0 max           0 min
Histogram: 1 0 0 0 0 0 0 0 0 0
FullNghs:       571500 ave      571500 max      571500 min
Histogram: 1 0 0 0 0 0 0 0 0 0

Total # of neighbors = 571500
Ave neighs/atom = 117.23077
Neighbor list builds = 0
Dangerous builds = 0

fix             3 all box/relax z 0.0 vmax 0.001
min_style       cg
minimize        0.0 1.0e-8 1000 2000
Switching to 'neigh_modify every 1 delay 0 check yes' setting during minimization
WARNING: Energy due to 3 extra global DOFs will be included in minimizer energies
 (src/min.cpp:219)
Per MPI rank memory allocation (min/avg/max) = 7.276 | 7.276 | 7.276 Mbytes
   Step          Time           Temp          Fnorm          PotEng         KinEng           Lx             Ly             Lz            Pxx            Pyy            Pzz            Pxy            Pxz            Pyz      
       348   0.348          1.5234331e-22  1.7885607e-09 -50289.891      9.5978408e-23  24.270655      21.019004      136.29544      76777.831      76777.831      7.8260494e-08  3.3298135e-06  2.6574945e-07  1.8363937e-08
       349   0.349          1.5234331e-22  1.7928016e-09 -50289.891      9.5978408e-23  24.270655      21.019004      136.29544      76777.831      76777.831     -2.1881561e-08  3.3297984e-06  2.657547e-07   1.8375973e-08
Loop time of 0.263566 on 1 procs for 1 steps with 4875 atoms

95.4% CPU use with 1 MPI tasks x 1 OpenMP threads

Minimization stats:
  Stopping criterion = force tolerance
  Energy initial, next-to-last, final = 
     -50289.8911496315  -50289.8911496315  -50289.8911496315
  Force two-norm initial, final = 3.8384716e-09 2.0287649e-09
  Force max component initial, final = 3.396309e-09 9.4960484e-10
  Final line search alpha, max atom move = 1 9.4960484e-10
  Iterations, force evaluations = 1 2

MPI task timing breakdown:
Section |  min time  |  avg time  |  max time  |%varavg| %total
---------------------------------------------------------------
Pair    | 0.26249    | 0.26249    | 0.26249    |   0.0 | 99.59
Neigh   | 0          | 0          | 0          |   0.0 |  0.00
Comm    | 0.00024399 | 0.00024399 | 0.00024399 |   0.0 |  0.09
Output  | 0          | 0          | 0          |   0.0 |  0.00
Modify  | 0          | 0          | 0          |   0.0 |  0.00
Other   |            | 0.0008291  |            |       |  0.31

Nlocal:           4875 ave        4875 max        4875 min
Histogram: 1 0 0 0 0 0 0 0 0 0
Nghost:          11117 ave       11117 max       11117 min
Histogram: 1 0 0 0 0 0 0 0 0 0
Neighs:              0 ave           0 max           0 min
Histogram: 1 0 0 0 0 0 0 0 0 0
FullNghs:       571500 ave      571500 max      571500 min
Histogram: 1 0 0 0 0 0 0 0 0 0

Total # of neighbors = 571500
Ave neighs/atom = 117.23077
Neighbor list builds = 0
Dangerous builds = 0
unfix           3
min_style       fire
minimize        0.0 1.0e-8 2000 4000
Switching to 'neigh_modify every 1 delay 0 check yes' setting during minimization
  Parameters for fire:
    dmax  delaystep dtgrow dtshrink alpha0 alphashrink tmax tmin   integrator   halfstepback   abcfire  
     0.1     20      1.1     0.5     0.25     0.99      10  0.02 eulerimplicit      yes          no     
Per MPI rank memory allocation (min/avg/max) = 6.151 | 6.151 | 6.151 Mbytes
   Step          Time           Temp          Fnorm          PotEng         KinEng           Lx             Ly             Lz            Pxx            Pyy            Pzz            Pxy            Pxz            Pyz      
       349   0.349          0              1.7927796e-09 -50289.891      0              24.270655      21.019004      136.29544      76777.831      76777.831     -2.1723727e-08  3.3297842e-06  2.6575098e-07  1.8376391e-08
       350   0.35           1.5328362e-22  1.7926335e-09 -50289.891      9.657082e-23   24.270655      21.019004      136.29544      76777.831      76777.831     -2.1682303e-08  3.3297893e-06  2.6575658e-07  1.8388901e-08
Loop time of 0.254963 on 1 procs for 1 steps with 4875 atoms

92.8% CPU use with 1 MPI tasks x 1 OpenMP threads

Minimization stats:
  Stopping criterion = force tolerance
  Energy initial, next-to-last, final = 
     -50289.8911496315  -50289.8911496315  -50289.8911496315
  Force two-norm initial, final = 1.7927796e-09 1.7926335e-09
  Force max component initial, final = 5.3581792e-11 5.3593005e-11
  Final line search alpha, max atom move = 0 0
  Iterations, force evaluations = 1 2

MPI task timing breakdown:
Section |  min time  |  avg time  |  max time  |%varavg| %total
---------------------------------------------------------------
Pair    | 0.25442    | 0.25442    | 0.25442    |   0.0 | 99.79
Neigh   | 0          | 0          | 0          |   0.0 |  0.00
Comm    | 0.00023603 | 0.00023603 | 0.00023603 |   0.0 |  0.09
Output  | 0          | 0          | 0          |   0.0 |  0.00
Modify  | 0          | 0          | 0          |   0.0 |  0.00
Other   |            | 0.0003062  |            |       |  0.12

Nlocal:           4875 ave        4875 max        4875 min
Histogram: 1 0 0 0 0 0 0 0 0 0
Nghost:          11117 ave       11117 max       11117 min
Histogram: 1 0 0 0 0 0 0 0 0 0
Neighs:              0 ave           0 max           0 min
Histogram: 1 0 0 0 0 0 0 0 0 0
FullNghs:       571500 ave      571500 max      571500 min
Histogram: 1 0 0 0 0 0 0 0 0 0

Total # of neighbors = 571500
Ave neighs/atom = 117.23077
Neighbor list builds = 0
Dangerous builds = 0

fix             3 all box/relax z 0.0 vmax 0.001
min_style       cg
minimize        0.0 1.0e-8 1000 2000
Switching to 'neigh_modify every 1 delay 0 check yes' setting during minimization
WARNING: Energy due to 3 extra global DOFs will be included in minimizer energies
 (src/min.cpp:219)
Per MPI rank memory allocation (min/avg/max) = 7.276 | 7.276 | 7.276 Mbytes
   Step          Time           Temp          Fnorm          PotEng         KinEng           Lx             Ly             Lz            Pxx            Pyy            Pzz            Pxy            Pxz            Pyz      
       350   0.35           1.5328362e-22  1.7926093e-09 -50289.891      9.657082e-23   24.270655      21.019004      136.29544      76777.831      76777.831     -2.157326e-08   3.3297784e-06  2.6574375e-07  1.8387326e-08
       351   0.351          1.5328362e-22  1.7882435e-09 -50289.891      9.657082e-23   24.270655      21.019004      136.29544      76777.831      76777.831      7.8747424e-08  3.3298361e-06  2.6576995e-07  1.8392429e-08
Loop time of 0.268612 on 1 procs for 1 steps with 4875 atoms

94.2% CPU use with 1 MPI tasks x 1 OpenMP threads

Minimization stats:
  Stopping criterion = force tolerance
  Energy initial, next-to-last, final = 
     -50289.8911496315  -50289.8911496315  -50289.8911496315
  Force two-norm initial, final = 2.0223664e-09 3.8570345e-09
  Force max component initial, final = 9.3622532e-10 3.4174406e-09
  Final line search alpha, max atom move = 1 3.4174406e-09
  Iterations, force evaluations = 1 2

MPI task timing breakdown:
Section |  min time  |  avg time  |  max time  |%varavg| %total
---------------------------------------------------------------
Pair    | 0.2677     | 0.2677     | 0.2677     |   0.0 | 99.66
Neigh   | 0          | 0          | 0          |   0.0 |  0.00
Comm    | 0.00020157 | 0.00020157 | 0.00020157 |   0.0 |  0.08
Output  | 0          | 0          | 0          |   0.0 |  0.00
Modify  | 0          | 0          | 0          |   0.0 |  0.00
Other   |            | 0.0007095  |            |       |  0.26

Nlocal:           4875 ave        4875 max        4875 min
Histogram: 1 0 0 0 0 0 0 0 0 0
Nghost:          11117 ave       11117 max       11117 min
Histogram: 1 0 0 0 0 0 0 0 0 0
Neighs:              0 ave           0 max           0 min
Histogram: 1 0 0 0 0 0 0 0 0 0
FullNghs:       571500 ave      571500 max      571500 min
Histogram: 1 0 0 0 0 0 0 0 0 0

Total # of neighbors = 571500
Ave neighs/atom = 117.23077
Neighbor list builds = 0
Dangerous builds = 0
unfix           3
min_style       fire
minimize        0.0 1.0e-8 2000 4000
Switching to 'neigh_modify every 1 delay 0 check yes' setting during minimization
  Parameters for fire:
    dmax  delaystep dtgrow dtshrink alpha0 alphashrink tmax tmin   integrator   halfstepback   abcfire  
     0.1     20      1.1     0.5     0.25     0.99      10  0.02 eulerimplicit      yes          no     
Per MPI rank memory allocation (min/avg/max) = 6.151 | 6.151 | 6.151 Mbytes
   Step          Time           Temp          Fnorm          PotEng         KinEng           Lx             Ly             Lz            Pxx            Pyy            Pzz            Pxy            Pxz            Pyz      
       351   0.351          0              1.7883405e-09 -50289.891      0              24.270655      21.019004      136.29544      76777.831      76777.831      7.8557826e-08  3.3298175e-06  2.6576525e-07  1.8394729e-08
       352   0.352          1.5218916e-22  1.7881629e-09 -50289.891      9.5881295e-23  24.270655      21.019004      136.29544      76777.831      76777.831      7.8959453e-08  3.3298286e-06  2.657747e-07   1.8393969e-08
Loop time of 0.269913 on 1 procs for 1 steps with 4875 atoms

93.6% CPU use with 1 MPI tasks x 1 OpenMP threads

Minimization stats:
  Stopping criterion = force tolerance
  Energy initial, next-to-last, final = 
     -50289.8911496315  -50289.8911496315  -50289.8911496315
  Force two-norm initial, final = 1.7883405e-09 1.7881629e-09
  Force max component initial, final = 5.36515e-11 5.3654962e-11
  Final line search alpha, max atom move = 0 0
  Iterations, force evaluations = 1 2

MPI task timing breakdown:
Section |  min time  |  avg time  |  max time  |%varavg| %total
---------------------------------------------------------------
Pair    | 0.26924    | 0.26924    | 0.26924    |   0.0 | 99.75
Neigh   | 0          | 0          | 0          |   0.0 |  0.00
Comm    | 0.0003213  | 0.0003213  | 0.0003213  |   0.0 |  0.12
Output  | 0          | 0          | 0          |   0.0 |  0.00
Modify  | 0          | 0          | 0          |   0.0 |  0.00
Other   |            | 0.0003543  |            |       |  0.13

Nlocal:           4875 ave        4875 max        4875 min
Histogram: 1 0 0 0 0 0 0 0 0 0
Nghost:          11117 ave       11117 max       11117 min
Histogram: 1 0 0 0 0 0 0 0 0 0
Neighs:              0 ave           0 max           0 min
Histogram: 1 0 0 0 0 0 0 0 0 0
FullNghs:       571500 ave      571500 max      571500 min
Histogram: 1 0 0 0 0 0 0 0 0 0

Total # of neighbors = 571500
Ave neighs/atom = 117.23077
Neighbor list builds = 0
Dangerous builds = 0

fix             3 all box/relax z 0.0 vmax 0.001
min_style       cg
minimize        0.0 1.0e-8 1000 2000
Switching to 'neigh_modify every 1 delay 0 check yes' setting during minimization
WARNING: Energy due to 3 extra global DOFs will be included in minimizer energies
 (src/min.cpp:219)
Per MPI rank memory allocation (min/avg/max) = 7.276 | 7.276 | 7.276 Mbytes
   Step          Time           Temp          Fnorm          PotEng         KinEng           Lx             Ly             Lz            Pxx            Pyy            Pzz            Pxy            Pxz            Pyz      
       352   0.352          1.5218916e-22  1.7882286e-09 -50289.891      9.5881295e-23  24.270655      21.019004      136.29544      76777.831      76777.831      7.8712223e-08  3.3298204e-06  2.6576574e-07  1.8393884e-08
       353   0.353          1.5218916e-22  1.7924589e-09 -50289.891      9.5881295e-23  24.270655      21.019004      136.29544      76777.831      76777.831     -2.148501e-08   3.3297922e-06  2.6576946e-07  1.8391329e-08
Loop time of 0.266184 on 1 procs for 1 steps with 4875 atoms

92.9% CPU use with 1 MPI tasks x 1 OpenMP threads

Minimization stats:
  Stopping criterion = force tolerance
  Energy initial, next-to-last, final = 
     -50289.8911496315  -50289.8911496315  -50289.8911496315
  Force two-norm initial, final = 3.855674e-09 2.0204629e-09
  Force max component initial, final = 3.4159129e-09 9.3239549e-10
  Final line search alpha, max atom move = 1 9.3239549e-10
  Iterations, force evaluations = 1 2

MPI task timing breakdown:
Section |  min time  |  avg time  |  max time  |%varavg| %total
---------------------------------------------------------------
Pair    | 0.26536    | 0.26536    | 0.26536    |   0.0 | 99.69
Neigh   | 0          | 0          | 0          |   0.0 |  0.00
Comm    | 0.00015082 | 0.00015082 | 0.00015082 |   0.0 |  0.06
Output  | 0          | 0          | 0          |   0.0 |  0.00
Modify  | 0          | 0          | 0          |   0.0 |  0.00
Other   |            | 0.0006716  |            |       |  0.25

Nlocal:           4875 ave        4875 max        4875 min
Histogram: 1 0 0 0 0 0 0 0 0 0
Nghost:          11117 ave       11117 max       11117 min
Histogram: 1 0 0 0 0 0 0 0 0 0
Neighs:              0 ave           0 max           0 min
Histogram: 1 0 0 0 0 0 0 0 0 0
FullNghs:       571500 ave      571500 max      571500 min
Histogram: 1 0 0 0 0 0 0 0 0 0

Total # of neighbors = 571500
Ave neighs/atom = 117.23077
Neighbor list builds = 0
Dangerous builds = 0
unfix           3

write_data      fire_cg_${name}.data
write_data      fire_cg_fire_cg_raw_Ta7Fe6_unitcell.data
System init for write_data ...

write_data      bi_minimised.data
System init for write_data ...

print """- step: $(step)
  atoms: $(atoms)
  temp: $(temp)
  press: $(press)
  pe: $(pe)
  ke: $(ke)
  etotal: $(etotal)
  vol: $(vol)
  avecx: $(avecx)
  avecy: $(avecy)
  avecz: $(avecz)
  bvecx: $(bvecx)
  bvecy: $(bvecy)
  bvecz: $(bvecz)
  cvecx: $(cvecx)
  cvecy: $(cvecy)
  cvecz: $(cvecz)
  lx: $(lx)
  ly: $(ly)
  lz: $(lz)
  cella: $(cella)
  cellb: $(cellb)
  cellc: $(cellc)
  cellalpha: $(cellalpha)
  cellbeta: $(cellbeta)
  cellgamma: $(cellgamma)
  pxx: $(pxx)
  pyy: $(pyy)
  pzz: $(pzz)
  pxy: $(pxy)
  pyz: $(pyz)
  pxz: $(pxz)
  xlo: $(xlo)
  xhi: $(xhi)
  ylo: $(ylo)
  yhi: $(yhi)
  zlo: $(zlo)
  zhi: $(zhi)
  xy: $(xy)
  xz: $(xz)
  yz: $(yz)
""" file bi_minimised.data.yaml screen yes universe no
- step: 353
  atoms: 4875
  temp: 1.5218916265760607291e-22
  press: 51185.220772717759246
  pe: -50289.891149631475855
  ke: 9.5881295015452336115e-23
  etotal: -50289.891149631475855
  vol: 69530.438426278953557
  avecx: 24.270655320997754245
  avecy: 0
  avecz: 0
  bvecx: -12.13532766058932566
  bvecy: 21.019004074486289824
  bvecz: 0
  cvecx: 0
  cvecy: 0
  cvecz: 136.29544150417564197
  lx: 24.270655320997754245
  ly: 21.019004074486289824
  lz: 136.29544150417564197
  cella: 24.270655320997754245
  cellb: 24.270655321048412389
  cellc: 136.29544150417564197
  cellalpha: 90
  cellbeta: 90
  cellgamma: 120.00000000017750779
  pxx: 76777.831159318317077
  pyy: 76777.831158856439288
  pzz: -2.1485009777566593746e-08
  pxy: 3.3297921719431232773e-06
  pyz: 1.8391328690984706999e-08
  pxz: 2.6576946186410572392e-07
  xlo: 0.00049104455022398534828
  xhi: 24.271146365547977553
  ylo: 0.00042525705137085533479
  yhi: 21.019429331537661909
  zlo: -1.4976932904022175475
  zhi: 134.79774821377341709
  xy: -12.13532766058932566
  xz: 0
  yz: 0

[GRACE:debug, proc #0]: Data preparation timer: 3.38561e+06 mcs, graph execution time: 5.16429e+07 mcs, data preparation time fraction: 6.15 %
Total wall time: 0:01:00
