
thermo          10
thermo_style    custom step time temp fnorm pe ke lx ly lz pxx pyy pzz pxy pxz pyz

timestep        0.001

min_style       fire
minimize        0.0 1.0e-8 2000 4000

CITE-CITE-CITE-CITE-CITE-CITE-CITE-CITE-CITE-CITE-CITE-CITE-CITE

Your simulation uses code contributions which should be cited:

- Type Label Framework: https://doi.org/10.1021/acs.jpcb.3c08419

@Article{Gissinger24,
 author = {Jacob R. Gissinger, Ilia Nikiforov, Yaser Afshar, Brendon Waters, Moon-ki Choi, Daniel S. Karls, Alexander Stukowski, Wonpil Im, Hendrik Heinz, Axel Kohlmeyer, and Ellad B. Tadmor},
 title = {Type Label Framework for Bonded Force Fields in LAMMPS},
 journal = {J. Phys. Chem. B},
 year =    2024,
 volume =  128,
 number =  13,
 pages =   {3282–-3297}
}

CITE-CITE-CITE-CITE-CITE-CITE-CITE-CITE-CITE-CITE-CITE-CITE-CITE

Switching to 'neigh_modify every 1 delay 0 check yes' setting during minimization
Neighbor list info ...
  update: every = 1 steps, delay = 0 steps, check = yes
  max neighbors/atom: 2000, page size: 100000
  master list distance cutoff = 7.4
  ghost atom cutoff = 7.4
  binsize = 3.7, bins = 3 2 59
  1 neighbor lists, perpetual/occasional/extra = 1 0 0
  (1) pair grace, perpetual
      attributes: full, newton on
      pair build: full/bin/atomonly
      stencil: full/bin/3d
      bin: standard
  Parameters for fire:
    dmax  delaystep dtgrow dtshrink alpha0 alphashrink tmax tmin   integrator   halfstepback   abcfire  
     0.1     20      1.1     0.5     0.25     0.99      10  0.02 eulerimplicit      yes          no     
[GRACE] Atoms padding: new num. of atoms = 351 (incl. 0.855% fake atoms)
[GRACE] Neighbours padding: extending new num. of neighbours = 23707 (incl. 0.991% fake neighbours)
Per MPI rank memory allocation (min/avg/max) = 4.534 | 4.534 | 4.534 Mbytes
   Step          Time           Temp          Fnorm          PotEng         KinEng           Lx             Ly             Lz            Pxx            Pyy            Pzz            Pxy            Pxz            Pyz      
         0   0              0              65.519155     -3428.3864      0              4.9770056      4.3102133      218.27177      206170.17      206170.17      409601.46      9.6343587e-07  1.5073975e-10  8.2891667e-11
        10   0.01           448.10363      54.792672     -3456.7616      20.098913      4.9770056      4.3102133      218.27177      190445.75      190445.75      398814.72      9.2168435e-07  2.2602976e-10  4.7293275e-10
        20   0.02           1303.1568      33.431051     -3507.0626      58.450843      4.9770056      4.3102133      218.27177      159819.43      159819.43      383714.83      8.3998329e-07  5.382498e-10   3.4151469e-10
        30   0.070738431    2398.6864      7.8723755     -3551.7693      107.58893      4.9770056      4.3102133      218.27177      132370.24      132370.24      363808.3       7.4956717e-07 -8.7648969e-11 -3.1249633e-11
        40   0.24463636     347.7567       3.4086899     -3560.1413      15.598025      4.9770056      4.3102133      218.27177      136876.06      136876.06      276326.85      7.1343464e-07 -1.9537315e-10 -2.5743407e-11
        50   0.5            44.056887      1.3806115     -3562.4424      1.9760954      4.9770056      4.3102133      218.27177      133351.8       133351.8       263698.17      7.1667464e-07 -2.1642098e-11  1.581941e-10 
        60   0.6            17.955604      0.71792423    -3563.1799      0.80536755     4.9770056      4.3102133      218.27177      131545.49      131545.49      262912.54      7.2133969e-07  8.7449607e-11 -1.156106e-10 
        70   0.7            15.963892      0.39467711    -3563.6003      0.71603275     4.9770056      4.3102133      218.27177      131666.26      131666.26      261558.99      7.2092161e-07  8.0505618e-11 -1.7351082e-10
        80   0.8            18.410398      0.21335551    -3563.8955      0.82576654     4.9770056      4.3102133      218.27177      131473.57      131473.57      260835.9       7.2038653e-07  5.1979219e-11  8.3445505e-11
        90   0.9            12.863539      0.14070349    -3564.0346      0.57697179     4.9770056      4.3102133      218.27177      131429.43      131429.43      260260.53      7.2007867e-07  4.1376159e-10 -7.2908229e-12
       100   0.5            0.0014348898   0.030893681   -3564.0477      6.4359499e-05  4.9770056      4.3102133      218.27177      131374.91      131374.91      259835.16      7.2022491e-07  2.7762016e-10 -1.3885046e-10
       110   0.55           0.00070447574  0.0069092931  -3564.0477      3.1598041e-05  4.9770056      4.3102133      218.27177      131401.17      131401.17      259800.35      7.2016721e-07  5.9931764e-12  7.3449311e-11
       120   0.7986         0.0003842127   0.0040081132  -3564.0477      1.7233196e-05  4.9770056      4.3102133      218.27177      131399.47      131399.47      259802.4       7.2012694e-07  9.8240901e-11  7.5847142e-11
       130   1.3            0.00071433787  0.0029524719  -3564.0478      3.2040389e-05  4.9770056      4.3102133      218.27177      131399.89      131399.89      259801.47      7.2022647e-07  3.2280551e-11  1.8061445e-10
       140   1.4            0.0011544787   0.0018973154  -3564.0478      5.1782146e-05  4.9770056      4.3102133      218.27177      131399.47      131399.47      259801.15      7.2020155e-07  2.3238306e-10 -1.2208346e-10
       150   1.5            0.00058750283  0.0011980999  -3564.0478      2.6351423e-05  4.9770056      4.3102133      218.27177      131399.33      131399.33      259800.53      7.2024099e-07 -4.8509398e-12  7.7082041e-11
       160   1.6            0.00014523149  0.00090625424 -3564.0478      6.5141073e-06  4.9770056      4.3102133      218.27177      131399.18      131399.18      259800.21      7.2014609e-07  7.3184631e-11  4.4614798e-11
       170   0.85           2.1358712e-09  0.00028006428 -3564.0478      9.5800806e-11  4.9770056      4.3102133      218.27177      131399.2       131399.2       259800.11      7.2022541e-07 -2.4502823e-11 -4.6047334e-11
       180   0.45           3.7236695e-10  6.332213e-05  -3564.0478      1.6701876e-11  4.9770056      4.3102133      218.27177      131399.25      131399.25      259800.08      7.2016599e-07 -9.8011335e-12 -7.3703122e-11
       190   0.475          3.0157981e-09  4.5757422e-05 -3564.0478      1.3526841e-10  4.9770056      4.3102133      218.27177      131399.24      131399.24      259800.08      7.2021546e-07 -6.2263751e-11 -7.5303419e-11
       200   0.6655         7.1839568e-09  4.4235128e-05 -3564.0478      3.2222396e-10  4.9770056      4.3102133      218.27177      131399.24      131399.24      259800.08      7.2013431e-07 -1.1503022e-10 -8.18185e-11  
       210   1.8124424      2.4401623e-08  4.2025898e-05 -3564.0478      1.0944926e-09  4.9770056      4.3102133      218.27177      131399.24      131399.24      259800.08      7.2018127e-07  9.1932764e-12  3.6398064e-11
       220   2.2            7.2146894e-08  3.4344408e-05 -3564.0478      3.2360241e-09  4.9770056      4.3102133      218.27177      131399.24      131399.24      259800.08      7.2004527e-07  1.2809825e-10 -4.6042269e-11
       230   2.3            1.2991118e-07  2.3366049e-05 -3564.0478      5.8269414e-09  4.9770056      4.3102133      218.27177      131399.24      131399.24      259800.07      7.2010073e-07 -2.6820433e-11  1.3139407e-10
       240   2.4            1.6474848e-07  2.9911652e-05 -3564.0478      7.389508e-09   4.9770056      4.3102133      218.27177      131399.24      131399.24      259800.07      7.2008561e-07  2.0209807e-10  3.6296974e-10
       250   2.5            2.5921842e-08  3.7196826e-06 -3564.0478      1.1626794e-09  4.9770056      4.3102133      218.27177      131399.23      131399.23      259800.06      7.2050569e-07 -7.4503605e-10 -3.876479e-10 
       260   0.65           4.613172e-13   2.5303221e-06 -3564.0478      2.0691585e-14  4.9770056      4.3102133      218.27177      131399.23      131399.23      259800.06      7.2023757e-07 -2.5099232e-10  1.3077186e-10
       270   0.675          3.7490425e-12  9.971493e-07  -3564.0478      1.6815682e-13  4.9770056      4.3102133      218.27177      131399.23      131399.23      259800.06      7.2027966e-07 -1.8105482e-10  3.2827115e-11
       280   0.847          5.4920837e-12  8.7616613e-07 -3564.0478      2.4633792e-13  4.9770056      4.3102133      218.27177      131399.23      131399.23      259800.06      7.201758e-07   1.069766e-10  -1.4996099e-11
       290   2.2753606      1.2750322e-11  8.1876333e-07 -3564.0478      5.7189362e-13  4.9770056      4.3102133      218.27177      131399.23      131399.23      259800.06      7.2016166e-07 -5.1664819e-12  1.2151683e-11
       300   3              3.2884965e-11  6.5430071e-07 -3564.0478      1.4749982e-12  4.9770056      4.3102133      218.27177      131399.23      131399.23      259800.06      7.2012276e-07  1.4553528e-10 -8.3917364e-11
       310   3.1            5.570861e-11   4.2517232e-07 -3564.0478      2.4987133e-12  4.9770056      4.3102133      218.27177      131399.23      131399.23      259800.06      7.2010263e-07  2.9403373e-11 -1.3453751e-10
       320   3.2            4.5274681e-11  4.4600797e-07 -3564.0478      2.0307175e-12  4.9770056      4.3102133      218.27177      131399.23      131399.23      259800.06      7.199993e-07   7.2368758e-11 -4.8647573e-10
       330   3.3            7.8357213e-12  3.595911e-07  -3564.0478      3.5145773e-13  4.9770056      4.3102133      218.27177      131399.23      131399.23      259800.06      7.2022685e-07 -2.0171831e-11  1.3387765e-10
       340   0.85           3.0344987e-16  4.6726135e-08 -3564.0478      1.3610719e-17  4.9770056      4.3102133      218.27177      131399.23      131399.23      259800.06      7.2016068e-07 -5.9300592e-11 -3.2656164e-10
       350   0.875          2.0528431e-15  2.9402636e-08 -3564.0478      9.2076725e-17  4.9770056      4.3102133      218.27177      131399.23      131399.23      259800.06      7.2020239e-07 -1.2107046e-10 -2.6520965e-10
       360   1.1979         4.1284753e-15  2.7790523e-08 -3564.0478      1.8517562e-16  4.9770056      4.3102133      218.27177      131399.23      131399.23      259800.06      7.2018681e-07 -8.410731e-11  -1.8253642e-11
       370   3.1933509      1.1941717e-14  2.612596e-08  -3564.0478      5.3562505e-16  4.9770056      4.3102133      218.27177      131399.23      131399.23      259800.06      7.2017215e-07  3.859667e-11  -1.553269e-11 
       380   3.8            3.2149531e-14  2.0970113e-08 -3564.0478      1.4420116e-15  4.9770056      4.3102133      218.27177      131399.23      131399.23      259800.06      7.2023285e-07  6.9139704e-12  9.753637e-12 
       390   3.9            5.5188551e-14  1.3761869e-08 -3564.0478      2.475387e-15   4.9770056      4.3102133      218.27177      131399.23      131399.23      259800.06      7.2006867e-07 -3.7988833e-13 -8.9359269e-11
       395   3.95           6.4765648e-14  9.6102088e-09 -3564.0478      2.9049511e-15  4.9770056      4.3102133      218.27177      131399.23      131399.23      259800.06      7.2025481e-07 -3.7419015e-11 -5.4751427e-11
Loop time of 2.82132 on 2 procs for 395 steps with 348 atoms

103.4% CPU use with 1 MPI tasks x 2 OpenMP threads

Minimization stats:
  Stopping criterion = force tolerance
  Energy initial, next-to-last, final = 
     -3428.38637278744  -3564.04779562574  -3564.04779562574
  Force two-norm initial, final = 65.519155 9.6102088e-09
  Force max component initial, final = 5.0274314 7.8822054e-10
  Final line search alpha, max atom move = 0 0
  Iterations, force evaluations = 395 403

MPI task timing breakdown:
Section |  min time  |  avg time  |  max time  |%varavg| %total
---------------------------------------------------------------
Pair    | 2.8049     | 2.8049     | 2.8049     |   0.0 | 99.42
Neigh   | 0.0011913  | 0.0011913  | 0.0011913  |   0.0 |  0.04
Comm    | 0.010095   | 0.010095   | 0.010095   |   0.0 |  0.36
Output  | 0.0016481  | 0.0016481  | 0.0016481  |   0.0 |  0.06
Modify  | 0          | 0          | 0          |   0.0 |  0.00
Other   |            | 0.003519   |            |       |  0.12

Nlocal:            348 ave         348 max         348 min
Histogram: 1 0 0 0 0 0 0 0 0 0
Nghost:           7425 ave        7425 max        7425 min
Histogram: 1 0 0 0 0 0 0 0 0 0
Neighs:              0 ave           0 max           0 min
Histogram: 1 0 0 0 0 0 0 0 0 0
FullNghs:        42000 ave       42000 max       42000 min
Histogram: 1 0 0 0 0 0 0 0 0 0

Total # of neighbors = 42000
Ave neighs/atom = 120.68966
Neighbor list builds = 1
Dangerous builds = 0

#write_data      fire_${name}.data

fix             3 all box/relax z 0.0 vmax 0.001
min_style       cg
minimize        0.0 1.0e-8 1000 2000
Switching to 'neigh_modify every 1 delay 0 check yes' setting during minimization
WARNING: Energy due to 3 extra global DOFs will be included in minimizer energies
 (src/min.cpp:219)
Per MPI rank memory allocation (min/avg/max) = 5.659 | 5.659 | 5.659 Mbytes
   Step          Time           Temp          Fnorm          PotEng         KinEng           Lx             Ly             Lz            Pxx            Pyy            Pzz            Pxy            Pxz            Pyz      
       395   0.395          6.4765648e-14  9.6101109e-09 -3564.0478      2.9049511e-15  4.9770056      4.3102133      218.27177      131399.23      131399.23      259800.06      7.20283e-07   -9.7251451e-11 -1.2580007e-10
       400   0.4            6.4765648e-14  0.28917511    -3567.6751      2.9049511e-15  4.9770056      4.3102133      219.36313      122285.08      122285.08      236852.25      7.0093417e-07 -1.5739857e-10 -1.7014657e-10
       410   0.41           6.4765648e-14  0.80373672    -3573.9626      2.9049511e-15  4.9770056      4.3102133      221.54584      104628.26      104628.26      194102.64      6.6433139e-07 -1.7590895e-10 -1.7996983e-10
       420   0.42           6.4765648e-14  1.2474734     -3579.0579      2.9049511e-15  4.9770056      4.3102133      223.72856      87666.679      87666.679      155202.61      6.3022076e-07  1.4521006e-10 -3.4294664e-10
       430   0.43           6.4765648e-14  1.6384388     -3583.0677      2.9049511e-15  4.9770056      4.3102133      225.91128      71339.699      71339.699      119741.48      5.9925885e-07  2.8974297e-10 -4.7370442e-10
       440   0.44           6.4765648e-14  1.993311      -3586.0868      2.9049511e-15  4.9770056      4.3102133      228.094        55605.787      55605.787      87341.6        5.7108799e-07  1.9078036e-10 -5.6763337e-10
       450   0.45           6.4765648e-14  2.3264573     -3588.1992      2.9049511e-15  4.9770056      4.3102133      230.27672      40436.697      40436.697      57614.862      5.4579785e-07  8.6780213e-11 -5.061412e-10 
       460   0.46           6.4765648e-14  2.649055      -3589.4774      2.9049511e-15  4.9770056      4.3102133      232.45943      25814.514      25814.514      30174.583      5.2320204e-07 -1.3069591e-10 -4.0361814e-10
       470   0.47           6.4765648e-14  2.9622658     -3589.984       2.9049511e-15  4.9770056      4.3102133      234.64215      11728.746      11728.746      4664.9304      5.0320248e-07 -8.9636013e-11 -2.9311489e-10
       480   0.48           6.4765648e-14  0.53878861    -3590.5154      2.9049511e-15  4.9770056      4.3102133      235.29275      5308.4504      5308.4504      18.471287      5.1483438e-07 -4.3769012e-11  7.3159799e-11
       490   0.49           6.4765648e-14  0.33889815    -3590.5265      2.9049511e-15  4.9770056      4.3102133      235.30184      5186.2981      5186.2981     -86.360225      5.1479561e-07 -9.3384382e-11  8.5129556e-11
       500   0.5            6.4765648e-14  0.24493055    -3590.5271      2.9049511e-15  4.9770056      4.3102133      235.31174      5086.7798      5086.7798     -80.471271      5.1559569e-07 -5.566532e-10   1.9989583e-10
       510   0.51           6.4765648e-14  0.28649075    -3590.5274      2.9049511e-15  4.9770056      4.3102133      235.32993      4954.1883      4954.1883     -125.84532      5.1575852e-07 -1.3251952e-10 -7.1192687e-11
       520   0.52           6.4765648e-14  0.3686497     -3590.5283      2.9049511e-15  4.9770056      4.3102133      235.3551       4727.9178      4727.9178     -246.18139      5.1588036e-07  3.7257221e-10 -4.9015705e-10
       530   0.53           6.4765648e-14  0.31189225    -3590.5297      2.9049511e-15  4.9770056      4.3102133      235.36042      4664.114       4664.114      -442.16859      5.1496594e-07  1.1177618e-09 -4.7286535e-10
       540   0.54           6.4765648e-14  0.093336421   -3590.5366      2.9049511e-15  4.9770056      4.3102133      235.31719      5085.2774      5085.2774      15.429883      5.1454158e-07  1.9331068e-10 -3.4356163e-10
       550   0.55           6.4765648e-14  0.057149255   -3590.5378      2.9049511e-15  4.9770056      4.3102133      235.31567      5122.9206      5122.9206     -16.082387      5.1567278e-07 -4.3590324e-10  3.5379148e-10
       560   0.56           6.4765648e-14  0.056448782   -3590.5385      2.9049511e-15  4.9770056      4.3102133      235.32027      5074.451       5074.451      -29.750675      5.163243e-07  -4.5340733e-10  2.0591405e-10
       570   0.57           6.4765648e-14  0.094544094   -3590.5391      2.9049511e-15  4.9770056      4.3102133      235.30642      5203.2878      5203.2878      80.253991      5.1494261e-07  4.3343605e-10 -5.6972173e-11
       580   0.58           6.4765648e-14  0.091602909   -3590.5403      2.9049511e-15  4.9770056      4.3102133      235.32278      5046.0759      5046.0759     -33.828505      5.1366536e-07  2.1427166e-10 -4.2759193e-11
       590   0.59           6.4765648e-14  0.10111235    -3590.5404      2.9049511e-15  4.9770056      4.3102133      235.32605      5013.8053      5013.8053     -57.837831      5.1505695e-07  9.8994879e-11  4.9884152e-10
       600   0.6            6.4765648e-14  0.094120476   -3590.5405      2.9049511e-15  4.9770056      4.3102133      235.32986      5003.5279      5003.5279     -81.748692      5.1611215e-07  1.0077266e-11  1.0485289e-09
       610   0.61           6.4765648e-14  0.058760119   -3590.5407      2.9049511e-15  4.9770056      4.3102133      235.32946      5038.4658      5038.4658     -125.69668      5.1489021e-07 -2.6438772e-10  3.2883299e-10
       620   0.62           6.4765648e-14  0.018185208   -3590.5412      2.9049511e-15  4.9770056      4.3102133      235.32085      5084.2889      5084.2889     -5.993327       5.1488904e-07 -1.3337031e-11  1.6504797e-10
       630   0.63           6.4765648e-14  0.022290371   -3590.5413      2.9049511e-15  4.9770056      4.3102133      235.32065      5084.999       5084.999      -2.604986       5.1507948e-07 -6.3778197e-11  3.6671582e-10
       640   0.64           6.4765648e-14  0.032406742   -3590.5413      2.9049511e-15  4.9770056      4.3102133      235.32136      5080.3366      5080.3366     -11.134733      5.1564452e-07 -1.260056e-10   1.1046984e-09
       650   0.65           6.4765648e-14  0.024410363   -3590.5413      2.9049511e-15  4.9770056      4.3102133      235.32125      5080.9231      5080.9231     -12.351962      5.1552947e-07 -3.0363277e-10  1.1063198e-09
       660   0.66           6.4765648e-14  0.024788037   -3590.5413      2.9049511e-15  4.9770056      4.3102133      235.32203      5076.9093      5076.9093     -22.627104      5.150243e-07  -2.9834631e-10  9.0234166e-10
       670   0.67           6.4765648e-14  0.012422019   -3590.5414      2.9049511e-15  4.9770056      4.3102133      235.31961      5092.0308      5092.0308      2.1857503      5.1502847e-07 -2.0296355e-11  1.9729044e-10
       680   0.68           6.4765648e-14  0.0049038518  -3590.5414      2.9049511e-15  4.9770056      4.3102133      235.32002      5089.8067      5089.8067     -3.3591018      5.1448097e-07  3.1330682e-10 -6.7077398e-10
       690   0.69           6.4765648e-14  0.0017202667  -3590.5414      2.9049511e-15  4.9770056      4.3102133      235.31965      5091.3577      5091.3577     -1.1582866      5.1482148e-07 -1.9630378e-10  3.3635213e-10
       700   0.7            6.4765648e-14  0.0016905676  -3590.5414      2.9049511e-15  4.9770056      4.3102133      235.31964      5091.379       5091.379      -1.0879514      5.1479246e-07 -1.1046713e-10 -2.6832765e-10
       710   0.71           6.4765648e-14  0.0015155987  -3590.5414      2.9049511e-15  4.9770056      4.3102133      235.31971      5091.2701      5091.2701     -1.0144742      5.1469957e-07  3.6892839e-10  2.0613483e-12
       720   0.72           6.4765648e-14  0.0011457932  -3590.5414      2.9049511e-15  4.9770056      4.3102133      235.31965      5091.6598      5091.6598     -0.75079717     5.1468109e-07 -1.1520646e-10  1.4551004e-10
       730   0.73           6.4765648e-14  0.0011159004  -3590.5414      2.9049511e-15  4.9770056      4.3102133      235.31965      5091.2826      5091.2826     -0.78941455     5.1479469e-07 -3.9651883e-10 -4.9622113e-10
       740   0.74           6.4765648e-14  0.0010656989  -3590.5414      2.9049511e-15  4.9770056      4.3102133      235.31963      5091.5984      5091.5984     -0.72482167     5.1459262e-07  6.2455333e-10  3.377352e-10 
       750   0.75           6.4765648e-14  0.00082968516 -3590.5414      2.9049511e-15  4.9770056      4.3102133      235.31966      5091.6418      5091.6418     -0.56594919     5.145483e-07   7.3997133e-13  3.0876177e-11
       760   0.76           6.4765648e-14  0.00071711189 -3590.5414      2.9049511e-15  4.9770056      4.3102133      235.31961      5091.8223      5091.8223     -0.50624084     5.1491798e-07 -7.3822708e-10 -2.8973399e-11
       770   0.77           6.4765648e-14  0.00087062661 -3590.5414      2.9049511e-15  4.9770056      4.3102133      235.31964      5091.4466      5091.4466     -0.61401195     5.1445898e-07  6.7580512e-10 -2.9951215e-11
       780   0.78           6.4765648e-14  0.00063302909 -3590.5414      2.9049511e-15  4.9770056      4.3102133      235.31962      5091.6472      5091.6472     -0.46409393     5.1472401e-07  2.8925829e-10 -2.3497611e-10
       790   0.79           6.4765648e-14  0.00062639255 -3590.5414      2.9049511e-15  4.9770056      4.3102133      235.3196       5091.9515      5091.9515     -0.44303854     5.1452643e-07 -7.8451053e-10  4.0603283e-10
       800   0.8            6.4765648e-14  0.00042017166 -3590.5414      2.9049511e-15  4.9770056      4.3102133      235.31958      5091.9978      5091.9978     -0.30803711     5.1463812e-07  3.1781771e-10 -3.9730297e-10
       810   0.81           6.4765648e-14  0.00027309633 -3590.5414      2.9049511e-15  4.9770056      4.3102133      235.31957      5091.9757      5091.9757     -0.16247884     5.1464434e-07  1.737171e-11   1.9739618e-10
       820   0.82           6.4765648e-14  0.00032217443 -3590.5414      2.9049511e-15  4.9770056      4.3102133      235.31956      5092.0056      5092.0056     -0.1649482      5.1451017e-07 -4.3379944e-10  2.6419623e-10
       830   0.83           6.4765648e-14  0.00017130065 -3590.5414      2.9049511e-15  4.9770056      4.3102133      235.31956      5092.0324      5092.0324     -0.078879234    5.1445409e-07  3.5888615e-10 -2.3063324e-10
       840   0.84           6.4765648e-14  0.0001695919  -3590.5414      2.9049511e-15  4.9770056      4.3102133      235.31955      5092.124       5092.124      -0.058733727    5.1480506e-07 -1.4993231e-10  1.8316056e-10
       850   0.85           6.4765648e-14  0.00016534237 -3590.5414      2.9049511e-15  4.9770056      4.3102133      235.31955      5092.1415      5092.1415     -0.04452967     5.1480111e-07 -2.4671001e-10  3.1025947e-11
       860   0.86           6.4765648e-14  0.00018033265 -3590.5414      2.9049511e-15  4.9770056      4.3102133      235.31956      5092.0528      5092.0528     -0.044422616    5.1379727e-07  3.5501011e-10 -7.6405576e-10
       870   0.87           6.4765648e-14  0.00017566937 -3590.5414      2.9049511e-15  4.9770056      4.3102133      235.31956      5092.0223      5092.0223     -0.037385942    5.1392469e-07  4.8781737e-10  1.709246e-10 
       880   0.88           6.4765648e-14  0.00012871417 -3590.5414      2.9049511e-15  4.9770056      4.3102133      235.31956      5092.0402      5092.0402     -0.025499284    5.1492005e-07 -9.9402831e-11  5.9956186e-10
       890   0.89           6.4765648e-14  0.0001075065  -3590.5414      2.9049511e-15  4.9770056      4.3102133      235.31956      5092.0742      5092.0742     -0.018962832    5.1504606e-07 -6.3986388e-10  1.8746824e-10
       900   0.9            6.4765648e-14  0.00013466176 -3590.5414      2.9049511e-15  4.9770056      4.3102133      235.31956      5092.1093      5092.1093     -0.021751216    5.1444451e-07 -1.3777564e-11 -5.1493204e-10
       910   0.91           6.4765648e-14  0.00017164647 -3590.5414      2.9049511e-15  4.9770056      4.3102133      235.31956      5092.1267      5092.1267     -0.02795839     5.1296936e-07  1.5249226e-09 -9.2761589e-10
       920   0.92           6.4765648e-14  0.00018030771 -3590.5414      2.9049511e-15  4.9770056      4.3102133      235.31956      5092.1033      5092.1033     -0.029828273    5.1314864e-07  1.7342464e-09 -1.5862697e-10
       930   0.93           6.4765648e-14  0.00014580483 -3590.5414      2.9049511e-15  4.9770056      4.3102133      235.31956      5092.0627      5092.0627     -0.025011426    5.1412314e-07  6.2062462e-10  4.8370348e-10
       940   0.94           6.4765648e-14  0.00012867205 -3590.5414      2.9049511e-15  4.9770056      4.3102133      235.31956      5092.046       5092.046      -0.02212116     5.1472696e-07 -4.6667533e-10  3.855956e-10 
       950   0.95           6.4765648e-14  0.00012196546 -3590.5414      2.9049511e-15  4.9770056      4.3102133      235.31956      5092.0455      5092.0455     -0.021534678    5.1527693e-07 -1.4737765e-09 -2.633065e-11 
       960   0.96           6.4765648e-14  9.9347575e-05 -3590.5414      2.9049511e-15  4.9770056      4.3102133      235.31956      5092.0548      5092.0548     -0.017823886    5.1535023e-07 -1.4388921e-09 -1.2780364e-10
       970   0.97           6.4765648e-14  0.00011429348 -3590.5414      2.9049511e-15  4.9770056      4.3102133      235.31956      5092.0647      5092.0647     -0.02093109     5.1469877e-07 -9.5068713e-11 -8.2762283e-11
       980   0.98           6.4765648e-14  0.00012712704 -3590.5414      2.9049511e-15  4.9770056      4.3102133      235.31956      5092.0828      5092.0828     -0.024102068    5.1384125e-07  1.5100703e-09 -2.9132852e-10
       990   0.99           6.4765648e-14  0.00013384817 -3590.5414      2.9049511e-15  4.9770056      4.3102133      235.31956      5092.1054      5092.1054     -0.026405132    5.1305646e-07  2.498355e-09  -1.722724e-10 
      1000   1              6.4765648e-14  0.00014308555 -3590.5414      2.9049511e-15  4.9770056      4.3102133      235.31956      5092.1152      5092.1152     -0.029368534    5.1290085e-07  2.0244562e-09 -4.0186616e-10
      1010   1.01           6.4765648e-14  0.00015856988 -3590.5414      2.9049511e-15  4.9770056      4.3102133      235.31956      5092.0948      5092.0948     -0.033992472    5.1381729e-07  2.1237181e-10 -1.3506241e-10
      1020   1.02           6.4765648e-14  0.00013575167 -3590.5414      2.9049511e-15  4.9770056      4.3102133      235.31956      5092.058       5092.058      -0.030565039    5.1508101e-07 -1.5156729e-09  6.1581481e-10
      1030   1.03           6.4765648e-14  0.00010090352 -3590.5414      2.9049511e-15  4.9770056      4.3102133      235.31956      5092.0385      5092.0385     -0.023776963    5.1547453e-07 -1.6351959e-09  6.0898769e-10
      1040   1.04           6.4765648e-14  7.8315682e-05 -3590.5414      2.9049511e-15  4.9770056      4.3102133      235.31956      5092.0402      5092.0402     -0.019169457    5.1523267e-07 -9.3659242e-10  3.4193728e-10
      1050   1.05           6.4765648e-14  8.9223383e-05 -3590.5414      2.9049511e-15  4.9770056      4.3102133      235.31956      5092.0503      5092.0503     -0.022656405    5.1479799e-07 -8.7968509e-11  1.3626927e-10
      1060   1.06           6.4765648e-14  0.00012710729 -3590.5414      2.9049511e-15  4.9770056      4.3102133      235.31956      5092.0636      5092.0636     -0.033450437    5.1318218e-07  1.6491497e-09 -3.7891823e-10
      1070   1.07           6.4765648e-14  0.00013378002 -3590.5414      2.9049511e-15  4.9770056      4.3102133      235.31956      5092.0673      5092.0673     -0.036849954    5.1172901e-07  2.9753195e-09 -1.1314075e-09
      1080   1.08           6.4765648e-14  0.00012979261 -3590.5414      2.9049511e-15  4.9770056      4.3102133      235.31956      5092.0519      5092.0519     -0.037861237    5.115111e-07   3.1703371e-09 -1.5599391e-09
      1090   1.09           6.4765648e-14  0.00011741501 -3590.5414      2.9049511e-15  4.9770056      4.3102133      235.31956      5092.0384      5092.0384     -0.03614466     5.1287208e-07  1.6103893e-09 -7.9866702e-10
      1100   1.1            6.4765648e-14  8.5572556e-05 -3590.5414      2.9049511e-15  4.9770056      4.3102133      235.31956      5092.0447      5092.0447     -0.027575492    5.1406168e-07  2.9560097e-10  1.2815601e-10
      1110   1.11           6.4765648e-14  6.9340179e-05 -3590.5414      2.9049511e-15  4.9770056      4.3102133      235.31956      5092.0556      5092.0556     -0.023331167    5.1483689e-07 -7.8429926e-10  4.9882885e-10
      1120   1.12           6.4765648e-14  7.0104311e-05 -3590.5414      2.9049511e-15  4.9770056      4.3102133      235.31956      5092.0617      5092.0617     -0.024653263    5.1500096e-07 -9.6136385e-10  5.8523813e-10
      1130   1.13           6.4765648e-14  6.6244857e-05 -3590.5414      2.9049511e-15  4.9770056      4.3102133      235.31956      5092.0632      5092.0632     -0.024353786    5.1494486e-07 -7.1678567e-10  4.4376264e-10
      1140   1.14           6.4765648e-14  6.3797038e-05 -3590.5414      2.9049511e-15  4.9770056      4.3102133      235.31956      5092.0609      5092.0609     -0.024656285    5.1447128e-07 -2.5521967e-10 -3.8161384e-11
      1150   1.15           6.4765648e-14  7.6103056e-05 -3590.5414      2.9049511e-15  4.9770056      4.3102133      235.31956      5092.0545      5092.0545     -0.030743581    5.1393229e-07  5.3063e-10    -3.3651963e-10
      1160   1.16           6.4765648e-14  6.7432609e-05 -3590.5414      2.9049511e-15  4.9770056      4.3102133      235.31956      5092.0521      5092.0521     -0.02826362     5.1340797e-07  1.0574192e-09 -4.3501512e-10
      1170   1.17           6.4765648e-14  5.1763546e-05 -3590.5414      2.9049511e-15  4.9770056      4.3102133      235.31956      5092.0523      5092.0523     -0.022712794    5.1346294e-07  9.7936983e-10 -5.9099053e-10
      1180   1.18           6.4765648e-14  5.3374495e-05 -3590.5414      2.9049511e-15  4.9770056      4.3102133      235.31956      5092.0507      5092.0507     -0.024582817    5.1388917e-07  6.4194284e-10 -5.0033521e-10
      1190   1.19           6.4765648e-14  5.7679316e-05 -3590.5414      2.9049511e-15  4.9770056      4.3102133      235.31956      5092.0531      5092.0531     -0.027678312    5.147433e-07  -3.6385453e-10  4.611872e-10 
      1200   1.2            6.4765648e-14  6.8516317e-05 -3590.5414      2.9049511e-15  4.9770056      4.3102133      235.31956      5092.0586      5092.0586     -0.034140753    5.1600168e-07 -1.9000705e-09  1.0917926e-09
      1210   1.21           6.4765648e-14  7.1445618e-05 -3590.5414      2.9049511e-15  4.9770056      4.3102133      235.31956      5092.0661      5092.0661     -0.036908313    5.1620718e-07 -2.7445188e-09  1.2201689e-09
      1220   1.22           6.4765648e-14  6.4466828e-05 -3590.5414      2.9049511e-15  4.9770056      4.3102133      235.31956      5092.0684      5092.0684     -0.034849792    5.1537446e-07 -1.768567e-09   6.0515569e-10
      1230   1.23           6.4765648e-14  6.5617159e-05 -3590.5414      2.9049511e-15  4.9770056      4.3102133      235.31956      5092.0621      5092.0621     -0.037034846    5.1389988e-07  1.8312531e-10 -3.3371831e-10
      1240   1.24           6.4765648e-14  5.7847701e-05 -3590.5414      2.9049511e-15  4.9770056      4.3102133      235.31956      5092.056       5092.056      -0.033750809    5.1266997e-07  1.9802341e-09 -6.7809573e-10
      1250   1.25           6.4765648e-14  5.1332336e-05 -3590.5414      2.9049511e-15  4.9770056      4.3102133      235.31956      5092.0498      5092.0498     -0.030959785    5.1242952e-07  2.3299587e-09 -7.9477337e-10
      1260   1.26           6.4765648e-14  5.7506559e-05 -3590.5414      2.9049511e-15  4.9770056      4.3102133      235.31956      5092.0403      5092.0403     -0.035924461    5.1353877e-07  1.0485748e-09 -2.9430602e-10
      1270   1.27           6.4765648e-14  6.6899131e-05 -3590.5414      2.9049511e-15  4.9770056      4.3102133      235.31956      5092.0358      5092.0358     -0.04326752     5.157319e-07  -1.892706e-09   8.158097e-10 
      1280   1.28           6.4765648e-14  6.9024871e-05 -3590.5414      2.9049511e-15  4.9770056      4.3102133      235.31956      5092.0434      5092.0434     -0.045864668    5.1715575e-07 -3.9517822e-09  1.8532232e-09
      1290   1.29           6.4765648e-14  7.2741808e-05 -3590.5414      2.9049511e-15  4.9770056      4.3102133      235.31956      5092.0495      5092.0495     -0.049358072    5.1644876e-07 -3.3692661e-09  1.3661018e-09
      1300   1.3            6.4765648e-14  5.8483803e-05 -3590.5414      2.9049511e-15  4.9770056      4.3102133      235.31956      5092.0518      5092.0518     -0.040513988    5.1469284e-07 -5.527939e-10   3.8371043e-10
      1310   1.31           6.4765648e-14  6.2915198e-05 -3590.5414      2.9049511e-15  4.9770056      4.3102133      235.31956      5092.0463      5092.0463     -0.044233061    5.1329042e-07  1.8295265e-09 -7.0988807e-10
      1320   1.32           6.4765648e-14  8.151533e-05  -3590.5414      2.9049511e-15  4.9770056      4.3102133      235.31956      5092.0471      5092.0471     -0.058389383    5.1169772e-07  3.7804436e-09 -2.3586501e-09
      1330   1.33           6.4765648e-14  6.075714e-05  -3590.5414      2.9049511e-15  4.9770056      4.3102133      235.31956      5092.0655      5092.0655     -0.043457382    5.1152126e-07  3.3776173e-09 -2.3437362e-09
      1340   1.34           6.4765648e-14  6.1652325e-05 -3590.5414      2.9049511e-15  4.9770056      4.3102133      235.31956      5092.0586      5092.0586     -0.043747663    5.1297414e-07  5.9084958e-10 -6.0278602e-10
      1350   1.35           6.4765648e-14  5.3057718e-05 -3590.5414      2.9049511e-15  4.9770056      4.3102133      235.31956      5092.0461      5092.0461     -0.03751393     5.151061e-07  -2.8149571e-09  1.2985442e-09
      1360   1.36           6.4765648e-14  4.9018558e-05 -3590.5414      2.9049511e-15  4.9770056      4.3102133      235.31956      5092.0451      5092.0451     -0.033741593    5.166723e-07  -3.5188813e-09  2.0978543e-09
      1370   1.37           6.4765648e-14  4.7679437e-05 -3590.5414      2.9049511e-15  4.9770056      4.3102133      235.31956      5092.0557      5092.0557     -0.031323747    5.1605468e-07 -8.8204596e-10  1.2817274e-09
      1380   1.38           6.4765648e-14  6.0654015e-05 -3590.5414      2.9049511e-15  4.9770056      4.3102133      235.31956      5092.0625      5092.0625     -0.038166497    5.128642e-07   2.6845812e-09 -1.0150823e-09
      1390   1.39           6.4765648e-14  6.4765055e-05 -3590.5414      2.9049511e-15  4.9770056      4.3102133      235.31956      5092.0662      5092.0662     -0.039644801    5.0917618e-07  5.2259602e-09 -3.5809508e-09
      1395   1.395          6.4765648e-14  5.8300863e-05 -3590.5414      2.9049511e-15  4.9770056      4.3102133      235.31956      5092.0937      5092.0937      0.011263178    5.0891093e-07  4.9927636e-09 -3.7082788e-09
Loop time of 13.6578 on 2 procs for 1000 steps with 348 atoms

102.8% CPU use with 1 MPI tasks x 2 OpenMP threads

Minimization stats:
  Stopping criterion = max iterations
  Energy initial, next-to-last, final = 
     -3564.04779562574  -3590.54140693248  -3590.54140693248
  Force two-norm initial, final = 759.26495 6.6951426e-05
  Force max component initial, final = 759.26495 3.2916606e-05
  Final line search alpha, max atom move = 1 3.2916606e-05
  Iterations, force evaluations = 1000 1919

MPI task timing breakdown:
Section |  min time  |  avg time  |  max time  |%varavg| %total
---------------------------------------------------------------
Pair    | 13.461     | 13.461     | 13.461     |   0.0 | 98.56
Neigh   | 0.017547   | 0.017547   | 0.017547   |   0.0 |  0.13
Comm    | 0.047622   | 0.047622   | 0.047622   |   0.0 |  0.35
Output  | 0.0020013  | 0.0020013  | 0.0020013  |   0.0 |  0.01
Modify  | 0          | 0          | 0          |   0.0 |  0.00
Other   |            | 0.1292     |            |       |  0.95

Nlocal:            348 ave         348 max         348 min
Histogram: 1 0 0 0 0 0 0 0 0 0
Nghost:           7400 ave        7400 max        7400 min
Histogram: 1 0 0 0 0 0 0 0 0 0
Neighs:              0 ave           0 max           0 min
Histogram: 1 0 0 0 0 0 0 0 0 0
FullNghs:        39708 ave       39708 max       39708 min
Histogram: 1 0 0 0 0 0 0 0 0 0

Total # of neighbors = 39708
Ave neighs/atom = 114.10345
Neighbor list builds = 20
Dangerous builds = 0
unfix           3
min_style       fire
minimize        0.0 1.0e-8 2000 4000
Switching to 'neigh_modify every 1 delay 0 check yes' setting during minimization
  Parameters for fire:
    dmax  delaystep dtgrow dtshrink alpha0 alphashrink tmax tmin   integrator   halfstepback   abcfire  
     0.1     20      1.1     0.5     0.25     0.99      10  0.02 eulerimplicit      yes          no     
Per MPI rank memory allocation (min/avg/max) = 4.535 | 4.535 | 4.535 Mbytes
   Step          Time           Temp          Fnorm          PotEng         KinEng           Lx             Ly             Lz            Pxx            Pyy            Pzz            Pxy            Pxz            Pyz      
      1395   1.395          0              5.8300863e-05 -3590.5414      0              4.9770056      4.3102133      235.31956      5092.0937      5092.0937      0.011263178    5.0894151e-07  4.9721149e-09 -3.6658626e-09
      1400   1.4            7.2431146e-11  5.7251062e-05 -3590.5414      3.2487738e-12  4.9770056      4.3102133      235.31956      5092.0935      5092.0935      0.011000466    5.0888006e-07  4.9374419e-09 -3.6867756e-09
      1410   1.41           6.3726876e-10  5.0755635e-05 -3590.5414      2.8583588e-11  4.9770056      4.3102133      235.31956      5092.0923      5092.0923      0.0092936038   5.0958775e-07  4.2891563e-09 -3.4013757e-09
      1420   2.079022       1.6499873e-09  3.9578451e-05 -3590.5414      7.4007328e-11  4.9770056      4.3102133      235.31956      5092.0896      5092.0896      0.0064483807   5.1041864e-07  3.5150751e-09 -2.9563359e-09
      1430   5.4304226      3.6854436e-09  2.0009165e-05 -3590.5414      1.653042e-10   4.9770056      4.3102133      235.31956      5092.0816      5092.0816      0.0047090224   5.1326323e-07  1.1184102e-09 -7.7407169e-10
      1440   14.183615      3.2708866e-09  8.0806823e-06 -3590.5414      1.4670996e-10  4.9770056      4.3102133      235.31956      5092.0792      5092.0792      0.0056460389   5.1351397e-07  3.4031673e-10 -2.8136542e-10
      1450   14.5           2.3532631e-09  2.633893e-06  -3590.5414      1.0555155e-10  4.9770056      4.3102133      235.31956      5092.078       5092.078       0.00038854092  5.1397205e-07  1.0599221e-10 -9.2461062e-11
      1460   14.6           9.3012343e-10  1.0345694e-06 -3590.5414      4.1719078e-11  4.9770056      4.3102133      235.31956      5092.0782      5092.0782     -0.00070057631  5.139681e-07  -9.788774e-11   1.2112679e-11
      1470   14.7           3.3239095e-10  5.7682744e-07 -3590.5414      1.4908821e-11  4.9770056      4.3102133      235.31956      5092.0782      5092.0782      0.00023865516  5.1404281e-07  5.905671e-11   2.1044259e-10
      1480   14.8           1.0945293e-10  2.9653899e-07 -3590.5414      4.9093218e-12  4.9770056      4.3102133      235.31956      5092.0782      5092.0782      0.00099865581  5.1403773e-07 -6.97687e-11    8.8241627e-11
      1490   14.9           2.4270312e-11  1.2873945e-07 -3590.5414      1.0886029e-12  4.9770056      4.3102133      235.31956      5092.0783      5092.0783      0.0012764995   5.1400235e-07 -2.3326713e-11 -9.5755674e-12
      1500   7.5            2.9982642e-15  3.9374571e-08 -3590.5414      1.3448195e-16  4.9770056      4.3102133      235.31956      5092.0783      5092.0783      0.0012767299   5.1388339e-07 -5.8281561e-11  3.1510451e-11
      1510   7.55           9.2173083e-15  2.5665248e-08 -3590.5414      4.1342642e-16  4.9770056      4.3102133      235.31956      5092.0783      5092.0783      0.0012683358   5.1404732e-07 -1.1310992e-10  2.4692143e-11
      1520   14.81025       1.7078155e-14  1.1899667e-08 -3590.5414      7.6601112e-16  4.9770056      4.3102133      235.31956      5092.0783      5092.0783      0.0012570281   5.1394231e-07 -5.6378782e-13  5.1102076e-11
      1522   15.22          1.8318967e-14  8.5690678e-09 -3590.5414      8.2166557e-16  4.9770056      4.3102133      235.31956      5092.0783      5092.0783      0.0012532566   5.1392737e-07 -5.6449251e-11 -6.0422193e-11
Loop time of 0.908613 on 2 procs for 127 steps with 348 atoms

103.9% CPU use with 1 MPI tasks x 2 OpenMP threads

Minimization stats:
  Stopping criterion = force tolerance
  Energy initial, next-to-last, final = 
     -3590.54140693248  -3590.54140693283  -3590.54140693282
  Force two-norm initial, final = 5.8300863e-05 8.5690678e-09
  Force max component initial, final = 7.7371059e-06 9.8761362e-10
  Final line search alpha, max atom move = 0 0
  Iterations, force evaluations = 127 129

MPI task timing breakdown:
Section |  min time  |  avg time  |  max time  |%varavg| %total
---------------------------------------------------------------
Pair    | 0.90354    | 0.90354    | 0.90354    |   0.0 | 99.44
Neigh   | 0          | 0          | 0          |   0.0 |  0.00
Comm    | 0.0035561  | 0.0035561  | 0.0035561  |   0.0 |  0.39
Output  | 0.00024565 | 0.00024565 | 0.00024565 |   0.0 |  0.03
Modify  | 0          | 0          | 0          |   0.0 |  0.00
Other   |            | 0.001269   |            |       |  0.14

Nlocal:            348 ave         348 max         348 min
Histogram: 1 0 0 0 0 0 0 0 0 0
Nghost:           7400 ave        7400 max        7400 min
Histogram: 1 0 0 0 0 0 0 0 0 0
Neighs:              0 ave           0 max           0 min
Histogram: 1 0 0 0 0 0 0 0 0 0
FullNghs:        39708 ave       39708 max       39708 min
Histogram: 1 0 0 0 0 0 0 0 0 0

Total # of neighbors = 39708
Ave neighs/atom = 114.10345
Neighbor list builds = 0
Dangerous builds = 0

fix             3 all box/relax z 0.0 vmax 0.001
min_style       cg
minimize        0.0 1.0e-8 1000 2000
Switching to 'neigh_modify every 1 delay 0 check yes' setting during minimization
WARNING: Energy due to 3 extra global DOFs will be included in minimizer energies
 (src/min.cpp:219)
Per MPI rank memory allocation (min/avg/max) = 5.66 | 5.66 | 5.66 Mbytes
   Step          Time           Temp          Fnorm          PotEng         KinEng           Lx             Ly             Lz            Pxx            Pyy            Pzz            Pxy            Pxz            Pyz      
      1522   1.522          1.8318967e-14  8.5690599e-09 -3590.5414      8.2166557e-16  4.9770056      4.3102133      235.31956      5092.0783      5092.0783      0.0012532565   5.1400475e-07 -6.8641162e-11 -2.5520206e-11
      1530   1.53           1.8318967e-14  1.660834e-08  -3590.5414      8.2166557e-16  4.9770056      4.3102133      235.31956      5092.0776      5092.0776     -3.0802968e-09  5.1391877e-07  4.3411659e-11  5.1454444e-11
      1531   1.531          1.8318967e-14  7.1540559e-09 -3590.5414      8.2166557e-16  4.9770056      4.3102133      235.31956      5092.0776      5092.0776      6.6132414e-07  5.1391821e-07 -9.5350607e-11  1.4126407e-10
Loop time of 0.133316 on 2 procs for 9 steps with 348 atoms

104.1% CPU use with 1 MPI tasks x 2 OpenMP threads

Minimization stats:
  Stopping criterion = force tolerance
  Energy initial, next-to-last, final = 
     -3590.54140693282  -3590.54140693283  -3590.54140693283
  Force two-norm initial, final = 3.9487127e-06 7.4513214e-09
  Force max component initial, final = 3.9487034e-06 2.0836683e-09
  Final line search alpha, max atom move = 1 2.0836683e-09
  Iterations, force evaluations = 9 18

MPI task timing breakdown:
Section |  min time  |  avg time  |  max time  |%varavg| %total
---------------------------------------------------------------
Pair    | 0.13178    | 0.13178    | 0.13178    |   0.0 | 98.85
Neigh   | 0          | 0          | 0          |   0.0 |  0.00
Comm    | 0.00036903 | 0.00036903 | 0.00036903 |   0.0 |  0.28
Output  | 1.2778e-05 | 1.2778e-05 | 1.2778e-05 |   0.0 |  0.01
Modify  | 0          | 0          | 0          |   0.0 |  0.00
Other   |            | 0.00115    |            |       |  0.86

Nlocal:            348 ave         348 max         348 min
Histogram: 1 0 0 0 0 0 0 0 0 0
Nghost:           7400 ave        7400 max        7400 min
Histogram: 1 0 0 0 0 0 0 0 0 0
Neighs:              0 ave           0 max           0 min
Histogram: 1 0 0 0 0 0 0 0 0 0
FullNghs:        39708 ave       39708 max       39708 min
Histogram: 1 0 0 0 0 0 0 0 0 0

Total # of neighbors = 39708
Ave neighs/atom = 114.10345
Neighbor list builds = 0
Dangerous builds = 0
unfix           3
min_style       fire
minimize        0.0 1.0e-8 2000 4000
Switching to 'neigh_modify every 1 delay 0 check yes' setting during minimization
  Parameters for fire:
    dmax  delaystep dtgrow dtshrink alpha0 alphashrink tmax tmin   integrator   halfstepback   abcfire  
     0.1     20      1.1     0.5     0.25     0.99      10  0.02 eulerimplicit      yes          no     
Per MPI rank memory allocation (min/avg/max) = 4.535 | 4.535 | 4.535 Mbytes
   Step          Time           Temp          Fnorm          PotEng         KinEng           Lx             Ly             Lz            Pxx            Pyy            Pzz            Pxy            Pxz            Pyz      
      1531   1.531          0              7.1536214e-09 -3590.5414      0              4.9770056      4.3102133      235.31956      5092.0776      5092.0776      6.6103581e-07  5.1383477e-07  1.5151796e-11  4.0028932e-11
      1532   1.532          5.7630498e-20  7.1413795e-09 -3590.5414      2.5849163e-21  4.9770056      4.3102133      235.31956      5092.0776      5092.0776      6.6128698e-07  5.1385041e-07 -4.6653438e-11  2.040207e-11 
Loop time of 0.0196767 on 2 procs for 1 steps with 348 atoms

101.3% CPU use with 1 MPI tasks x 2 OpenMP threads

Minimization stats:
  Stopping criterion = force tolerance
  Energy initial, next-to-last, final = 
     -3590.54140693283  -3590.54140693283  -3590.54140693283
  Force two-norm initial, final = 7.1536214e-09 7.1413795e-09
  Force max component initial, final = 1.4257472e-09 1.4238858e-09
  Final line search alpha, max atom move = 0 0
  Iterations, force evaluations = 1 2

MPI task timing breakdown:
Section |  min time  |  avg time  |  max time  |%varavg| %total
---------------------------------------------------------------
Pair    | 0.019578   | 0.019578   | 0.019578   |   0.0 | 99.50
Neigh   | 0          | 0          | 0          |   0.0 |  0.00
Comm    | 6.1097e-05 | 6.1097e-05 | 6.1097e-05 |   0.0 |  0.31
Output  | 0          | 0          | 0          |   0.0 |  0.00
Modify  | 0          | 0          | 0          |   0.0 |  0.00
Other   |            | 3.786e-05  |            |       |  0.19

Nlocal:            348 ave         348 max         348 min
Histogram: 1 0 0 0 0 0 0 0 0 0
Nghost:           7400 ave        7400 max        7400 min
Histogram: 1 0 0 0 0 0 0 0 0 0
Neighs:              0 ave           0 max           0 min
Histogram: 1 0 0 0 0 0 0 0 0 0
FullNghs:        39708 ave       39708 max       39708 min
Histogram: 1 0 0 0 0 0 0 0 0 0

Total # of neighbors = 39708
Ave neighs/atom = 114.10345
Neighbor list builds = 0
Dangerous builds = 0

fix             3 all box/relax z 0.0 vmax 0.001
min_style       cg
minimize        0.0 1.0e-8 1000 2000
Switching to 'neigh_modify every 1 delay 0 check yes' setting during minimization
WARNING: Energy due to 3 extra global DOFs will be included in minimizer energies
 (src/min.cpp:219)
Per MPI rank memory allocation (min/avg/max) = 5.66 | 5.66 | 5.66 Mbytes
   Step          Time           Temp          Fnorm          PotEng         KinEng           Lx             Ly             Lz            Pxx            Pyy            Pzz            Pxy            Pxz            Pyz      
      1532   1.532          5.7630498e-20  7.142089e-09  -3590.5414      2.5849163e-21  4.9770056      4.3102133      235.31956      5092.0776      5092.0776      6.6139804e-07  5.138483e-07  -3.7914728e-11  3.0189073e-11
      1534   1.534          5.7630498e-20  4.3132728e-09 -3590.5414      2.5849163e-21  4.9770056      4.3102133      235.31956      5092.0776      5092.0776      5.0126371e-09  5.1396444e-07 -5.7294933e-11  7.3098609e-11
Loop time of 0.0348245 on 2 procs for 2 steps with 348 atoms

103.7% CPU use with 1 MPI tasks x 2 OpenMP threads

Minimization stats:
  Stopping criterion = force tolerance
  Energy initial, next-to-last, final = 
     -3590.54140693283  -3590.54140693282  -3590.54140693282
  Force two-norm initial, final = 7.4398983e-09 4.3133017e-09
  Force max component initial, final = 2.0839028e-09 6.8400408e-10
  Final line search alpha, max atom move = 1 6.8400408e-10
  Iterations, force evaluations = 2 4

MPI task timing breakdown:
Section |  min time  |  avg time  |  max time  |%varavg| %total
---------------------------------------------------------------
Pair    | 0.034446   | 0.034446   | 0.034446   |   0.0 | 98.91
Neigh   | 0          | 0          | 0          |   0.0 |  0.00
Comm    | 9.9487e-05 | 9.9487e-05 | 9.9487e-05 |   0.0 |  0.29
Output  | 0          | 0          | 0          |   0.0 |  0.00
Modify  | 0          | 0          | 0          |   0.0 |  0.00
Other   |            | 0.000279   |            |       |  0.80

Nlocal:            348 ave         348 max         348 min
Histogram: 1 0 0 0 0 0 0 0 0 0
Nghost:           7400 ave        7400 max        7400 min
Histogram: 1 0 0 0 0 0 0 0 0 0
Neighs:              0 ave           0 max           0 min
Histogram: 1 0 0 0 0 0 0 0 0 0
FullNghs:        39708 ave       39708 max       39708 min
Histogram: 1 0 0 0 0 0 0 0 0 0

Total # of neighbors = 39708
Ave neighs/atom = 114.10345
Neighbor list builds = 0
Dangerous builds = 0
unfix           3
min_style       fire
minimize        0.0 1.0e-8 2000 4000
Switching to 'neigh_modify every 1 delay 0 check yes' setting during minimization
  Parameters for fire:
    dmax  delaystep dtgrow dtshrink alpha0 alphashrink tmax tmin   integrator   halfstepback   abcfire  
     0.1     20      1.1     0.5     0.25     0.99      10  0.02 eulerimplicit      yes          no     
Per MPI rank memory allocation (min/avg/max) = 4.535 | 4.535 | 4.535 Mbytes
   Step          Time           Temp          Fnorm          PotEng         KinEng           Lx             Ly             Lz            Pxx            Pyy            Pzz            Pxy            Pxz            Pyz      
      1534   1.534          0              4.3134453e-09 -3590.5414      0              4.9770056      4.3102133      235.31956      5092.0776      5092.0776      4.9049536e-09  5.1397783e-07 -1.453163e-10   6.2280931e-11
      1535   1.535          2.0662615e-20  4.3092112e-09 -3590.5414      9.2678587e-22  4.9770056      4.3102133      235.31956      5092.0776      5092.0776      4.6053004e-09  5.140156e-07  -1.4799429e-10  9.4496116e-11
Loop time of 0.0207442 on 2 procs for 1 steps with 348 atoms

94.7% CPU use with 1 MPI tasks x 2 OpenMP threads

Minimization stats:
  Stopping criterion = force tolerance
  Energy initial, next-to-last, final = 
     -3590.54140693282  -3590.54140693282  -3590.54140693282
  Force two-norm initial, final = 4.3134453e-09 4.3092112e-09
  Force max component initial, final = 6.8432132e-10 6.8323486e-10
  Final line search alpha, max atom move = 0 0
  Iterations, force evaluations = 1 2

MPI task timing breakdown:
Section |  min time  |  avg time  |  max time  |%varavg| %total
---------------------------------------------------------------
Pair    | 0.020635   | 0.020635   | 0.020635   |   0.0 | 99.47
Neigh   | 0          | 0          | 0          |   0.0 |  0.00
Comm    | 6.248e-05  | 6.248e-05  | 6.248e-05  |   0.0 |  0.30
Output  | 0          | 0          | 0          |   0.0 |  0.00
Modify  | 0          | 0          | 0          |   0.0 |  0.00
Other   |            | 4.661e-05  |            |       |  0.22

Nlocal:            348 ave         348 max         348 min
Histogram: 1 0 0 0 0 0 0 0 0 0
Nghost:           7400 ave        7400 max        7400 min
Histogram: 1 0 0 0 0 0 0 0 0 0
Neighs:              0 ave           0 max           0 min
Histogram: 1 0 0 0 0 0 0 0 0 0
FullNghs:        39708 ave       39708 max       39708 min
Histogram: 1 0 0 0 0 0 0 0 0 0

Total # of neighbors = 39708
Ave neighs/atom = 114.10345
Neighbor list builds = 0
Dangerous builds = 0

fix             3 all box/relax z 0.0 vmax 0.001
min_style       cg
minimize        0.0 1.0e-8 1000 2000
Switching to 'neigh_modify every 1 delay 0 check yes' setting during minimization
WARNING: Energy due to 3 extra global DOFs will be included in minimizer energies
 (src/min.cpp:219)
Per MPI rank memory allocation (min/avg/max) = 5.66 | 5.66 | 5.66 Mbytes
   Step          Time           Temp          Fnorm          PotEng         KinEng           Lx             Ly             Lz            Pxx            Pyy            Pzz            Pxy            Pxz            Pyz      
      1535   1.535          2.0662615e-20  4.3094599e-09 -3590.5414      9.2678587e-22  4.9770056      4.3102133      235.31956      5092.0776      5092.0776      4.3152316e-09  5.1407536e-07 -1.811873e-10   8.1775655e-11
      1537   1.537          2.0662615e-20  4.910425e-09  -3590.5414      9.2678587e-22  4.9770056      4.3102133      235.31956      5092.0776      5092.0776      7.7008026e-07  5.1404182e-07 -4.6723912e-11  9.6751268e-11
Loop time of 0.0349825 on 2 procs for 2 steps with 348 atoms

102.7% CPU use with 1 MPI tasks x 2 OpenMP threads

Minimization stats:
  Stopping criterion = force tolerance
  Energy initial, next-to-last, final = 
     -3590.54140693282  -3590.54140693283  -3590.54140693283
  Force two-norm initial, final = 4.3094814e-09 5.477168e-09
  Force max component initial, final = 6.8368611e-10 2.4263338e-09
  Final line search alpha, max atom move = 1 2.4263338e-09
  Iterations, force evaluations = 2 4

MPI task timing breakdown:
Section |  min time  |  avg time  |  max time  |%varavg| %total
---------------------------------------------------------------
Pair    | 0.034611   | 0.034611   | 0.034611   |   0.0 | 98.94
Neigh   | 0          | 0          | 0          |   0.0 |  0.00
Comm    | 9.9055e-05 | 9.9055e-05 | 9.9055e-05 |   0.0 |  0.28
Output  | 0          | 0          | 0          |   0.0 |  0.00
Modify  | 0          | 0          | 0          |   0.0 |  0.00
Other   |            | 0.000272   |            |       |  0.78

Nlocal:            348 ave         348 max         348 min
Histogram: 1 0 0 0 0 0 0 0 0 0
Nghost:           7400 ave        7400 max        7400 min
Histogram: 1 0 0 0 0 0 0 0 0 0
Neighs:              0 ave           0 max           0 min
Histogram: 1 0 0 0 0 0 0 0 0 0
FullNghs:        39708 ave       39708 max       39708 min
Histogram: 1 0 0 0 0 0 0 0 0 0

Total # of neighbors = 39708
Ave neighs/atom = 114.10345
Neighbor list builds = 0
Dangerous builds = 0
unfix           3
min_style       fire
minimize        0.0 1.0e-8 2000 4000
Switching to 'neigh_modify every 1 delay 0 check yes' setting during minimization
  Parameters for fire:
    dmax  delaystep dtgrow dtshrink alpha0 alphashrink tmax tmin   integrator   halfstepback   abcfire  
     0.1     20      1.1     0.5     0.25     0.99      10  0.02 eulerimplicit      yes          no     
Per MPI rank memory allocation (min/avg/max) = 4.535 | 4.535 | 4.535 Mbytes
   Step          Time           Temp          Fnorm          PotEng         KinEng           Lx             Ly             Lz            Pxx            Pyy            Pzz            Pxy            Pxz            Pyz      
      1537   1.537          0              4.9103924e-09 -3590.5414      0              4.9770056      4.3102133      235.31956      5092.0776      5092.0776      7.6988491e-07  5.1404816e-07 -4.1790769e-11  1.1172688e-10
      1538   1.538          2.4093652e-20  4.903472e-09  -3590.5414      1.0806791e-21  4.9770056      4.3102133      235.31956      5092.0776      5092.0776      7.7040528e-07  5.1406775e-07 -8.6823317e-11  4.2847871e-11
Loop time of 0.0209017 on 2 procs for 1 steps with 348 atoms

102.0% CPU use with 1 MPI tasks x 2 OpenMP threads

Minimization stats:
  Stopping criterion = force tolerance
  Energy initial, next-to-last, final = 
     -3590.54140693283  -3590.54140693283  -3590.54140693283
  Force two-norm initial, final = 4.9103924e-09 4.903472e-09
  Force max component initial, final = 9.5734082e-10 9.5568781e-10
  Final line search alpha, max atom move = 0 0
  Iterations, force evaluations = 1 2

MPI task timing breakdown:
Section |  min time  |  avg time  |  max time  |%varavg| %total
---------------------------------------------------------------
Pair    | 0.020802   | 0.020802   | 0.020802   |   0.0 | 99.53
Neigh   | 0          | 0          | 0          |   0.0 |  0.00
Comm    | 6.1857e-05 | 6.1857e-05 | 6.1857e-05 |   0.0 |  0.30
Output  | 0          | 0          | 0          |   0.0 |  0.00
Modify  | 0          | 0          | 0          |   0.0 |  0.00
Other   |            | 3.738e-05  |            |       |  0.18

Nlocal:            348 ave         348 max         348 min
Histogram: 1 0 0 0 0 0 0 0 0 0
Nghost:           7400 ave        7400 max        7400 min
Histogram: 1 0 0 0 0 0 0 0 0 0
Neighs:              0 ave           0 max           0 min
Histogram: 1 0 0 0 0 0 0 0 0 0
FullNghs:        39708 ave       39708 max       39708 min
Histogram: 1 0 0 0 0 0 0 0 0 0

Total # of neighbors = 39708
Ave neighs/atom = 114.10345
Neighbor list builds = 0
Dangerous builds = 0

fix             3 all box/relax z 0.0 vmax 0.001
min_style       cg
minimize        0.0 1.0e-8 1000 2000
Switching to 'neigh_modify every 1 delay 0 check yes' setting during minimization
WARNING: Energy due to 3 extra global DOFs will be included in minimizer energies
 (src/min.cpp:219)
Per MPI rank memory allocation (min/avg/max) = 5.66 | 5.66 | 5.66 Mbytes
   Step          Time           Temp          Fnorm          PotEng         KinEng           Lx             Ly             Lz            Pxx            Pyy            Pzz            Pxy            Pxz            Pyz      
      1538   1.538          2.4093652e-20  4.9036812e-09 -3590.5414      1.0806791e-21  4.9770056      4.3102133      235.31956      5092.0776      5092.0776      7.7062121e-07  5.1398304e-07  3.4391054e-11  1.0260057e-10
      1540   1.54           2.4093652e-20  3.7636373e-09 -3590.5414      1.0806791e-21  4.9770056      4.3102133      235.31956      5092.0776      5092.0776      2.7224748e-08  5.1391257e-07  1.5898815e-10  1.4136978e-10
Loop time of 0.0346326 on 2 procs for 2 steps with 348 atoms

107.0% CPU use with 1 MPI tasks x 2 OpenMP threads

Minimization stats:
  Stopping criterion = force tolerance
  Energy initial, next-to-last, final = 
     -3590.54140693283  -3590.54140693283  -3590.54140693282
  Force two-norm initial, final = 5.4718789e-09 3.7646146e-09
  Force max component initial, final = 2.4280382e-09 6.2825967e-10
  Final line search alpha, max atom move = 1 6.2825967e-10
  Iterations, force evaluations = 2 4

MPI task timing breakdown:
Section |  min time  |  avg time  |  max time  |%varavg| %total
---------------------------------------------------------------
Pair    | 0.034265   | 0.034265   | 0.034265   |   0.0 | 98.94
Neigh   | 0          | 0          | 0          |   0.0 |  0.00
Comm    | 9.5766e-05 | 9.5766e-05 | 9.5766e-05 |   0.0 |  0.28
Output  | 0          | 0          | 0          |   0.0 |  0.00
Modify  | 0          | 0          | 0          |   0.0 |  0.00
Other   |            | 0.0002716  |            |       |  0.78

Nlocal:            348 ave         348 max         348 min
Histogram: 1 0 0 0 0 0 0 0 0 0
Nghost:           7400 ave        7400 max        7400 min
Histogram: 1 0 0 0 0 0 0 0 0 0
Neighs:              0 ave           0 max           0 min
Histogram: 1 0 0 0 0 0 0 0 0 0
FullNghs:        39708 ave       39708 max       39708 min
Histogram: 1 0 0 0 0 0 0 0 0 0

Total # of neighbors = 39708
Ave neighs/atom = 114.10345
Neighbor list builds = 0
Dangerous builds = 0
unfix           3
min_style       fire
minimize        0.0 1.0e-8 2000 4000
Switching to 'neigh_modify every 1 delay 0 check yes' setting during minimization
  Parameters for fire:
    dmax  delaystep dtgrow dtshrink alpha0 alphashrink tmax tmin   integrator   halfstepback   abcfire  
     0.1     20      1.1     0.5     0.25     0.99      10  0.02 eulerimplicit      yes          no     
Per MPI rank memory allocation (min/avg/max) = 4.535 | 4.535 | 4.535 Mbytes
   Step          Time           Temp          Fnorm          PotEng         KinEng           Lx             Ly             Lz            Pxx            Pyy            Pzz            Pxy            Pxz            Pyz      
      1540   1.54           0              3.7636356e-09 -3590.5414      0              4.9770056      4.3102133      235.31956      5092.0776      5092.0776      2.7225312e-08  5.1397092e-07  1.8083493e-10  1.0950697e-10
      1541   1.541          1.5282249e-20  3.7602445e-09 -3590.5414      6.8545884e-22  4.9770056      4.3102133      235.31956      5092.0776      5092.0776      2.7162731e-08  5.1393583e-07  1.5003802e-10  1.0689945e-10
Loop time of 0.0204113 on 2 procs for 1 steps with 348 atoms

101.7% CPU use with 1 MPI tasks x 2 OpenMP threads

Minimization stats:
  Stopping criterion = force tolerance
  Energy initial, next-to-last, final = 
     -3590.54140693283  -3590.54140693283  -3590.54140693283
  Force two-norm initial, final = 3.7636356e-09 3.7602445e-09
  Force max component initial, final = 6.2833827e-10 6.2749739e-10
  Final line search alpha, max atom move = 0 0
  Iterations, force evaluations = 1 2

MPI task timing breakdown:
Section |  min time  |  avg time  |  max time  |%varavg| %total
---------------------------------------------------------------
Pair    | 0.020319   | 0.020319   | 0.020319   |   0.0 | 99.55
Neigh   | 0          | 0          | 0          |   0.0 |  0.00
Comm    | 5.9373e-05 | 5.9373e-05 | 5.9373e-05 |   0.0 |  0.29
Output  | 0          | 0          | 0          |   0.0 |  0.00
Modify  | 0          | 0          | 0          |   0.0 |  0.00
Other   |            | 3.276e-05  |            |       |  0.16

Nlocal:            348 ave         348 max         348 min
Histogram: 1 0 0 0 0 0 0 0 0 0
Nghost:           7400 ave        7400 max        7400 min
Histogram: 1 0 0 0 0 0 0 0 0 0
Neighs:              0 ave           0 max           0 min
Histogram: 1 0 0 0 0 0 0 0 0 0
FullNghs:        39708 ave       39708 max       39708 min
Histogram: 1 0 0 0 0 0 0 0 0 0

Total # of neighbors = 39708
Ave neighs/atom = 114.10345
Neighbor list builds = 0
Dangerous builds = 0

fix             3 all box/relax z 0.0 vmax 0.001
min_style       cg
minimize        0.0 1.0e-8 1000 2000
Switching to 'neigh_modify every 1 delay 0 check yes' setting during minimization
WARNING: Energy due to 3 extra global DOFs will be included in minimizer energies
 (src/min.cpp:219)
Per MPI rank memory allocation (min/avg/max) = 5.66 | 5.66 | 5.66 Mbytes
   Step          Time           Temp          Fnorm          PotEng         KinEng           Lx             Ly             Lz            Pxx            Pyy            Pzz            Pxy            Pxz            Pyz      
      1541   1.541          1.5282249e-20  3.7601941e-09 -3590.5414      6.8545884e-22  4.9770056      4.3102133      235.31956      5092.0776      5092.0776      2.7268723e-08  5.1392878e-07  1.3608427e-10  1.0326125e-10
      1543   1.543          1.5282249e-20  4.4371262e-09 -3590.5414      6.8545884e-22  4.9770056      4.3102133      235.31956      5092.0776      5092.0776      9.9606359e-08  5.1389368e-07  9.6760077e-11 -7.005944e-11 
Loop time of 0.0355112 on 2 procs for 2 steps with 348 atoms

103.7% CPU use with 1 MPI tasks x 2 OpenMP threads

Minimization stats:
  Stopping criterion = force tolerance
  Energy initial, next-to-last, final = 
     -3590.54140693283  -3590.54140693283  -3590.54140693282
  Force two-norm initial, final = 3.7611756e-09 4.448211e-09
  Force max component initial, final = 6.2741207e-10 9.0331176e-10
  Final line search alpha, max atom move = 1 9.0331176e-10
  Iterations, force evaluations = 2 4

MPI task timing breakdown:
Section |  min time  |  avg time  |  max time  |%varavg| %total
---------------------------------------------------------------
Pair    | 0.035133   | 0.035133   | 0.035133   |   0.0 | 98.93
Neigh   | 0          | 0          | 0          |   0.0 |  0.00
Comm    | 9.4788e-05 | 9.4788e-05 | 9.4788e-05 |   0.0 |  0.27
Output  | 0          | 0          | 0          |   0.0 |  0.00
Modify  | 0          | 0          | 0          |   0.0 |  0.00
Other   |            | 0.0002838  |            |       |  0.80

Nlocal:            348 ave         348 max         348 min
Histogram: 1 0 0 0 0 0 0 0 0 0
Nghost:           7400 ave        7400 max        7400 min
Histogram: 1 0 0 0 0 0 0 0 0 0
Neighs:              0 ave           0 max           0 min
Histogram: 1 0 0 0 0 0 0 0 0 0
FullNghs:        39708 ave       39708 max       39708 min
Histogram: 1 0 0 0 0 0 0 0 0 0

Total # of neighbors = 39708
Ave neighs/atom = 114.10345
Neighbor list builds = 0
Dangerous builds = 0
unfix           3
min_style       fire
minimize        0.0 1.0e-8 2000 4000
Switching to 'neigh_modify every 1 delay 0 check yes' setting during minimization
  Parameters for fire:
    dmax  delaystep dtgrow dtshrink alpha0 alphashrink tmax tmin   integrator   halfstepback   abcfire  
     0.1     20      1.1     0.5     0.25     0.99      10  0.02 eulerimplicit      yes          no     
Per MPI rank memory allocation (min/avg/max) = 4.535 | 4.535 | 4.535 Mbytes
   Step          Time           Temp          Fnorm          PotEng         KinEng           Lx             Ly             Lz            Pxx            Pyy            Pzz            Pxy            Pxz            Pyz      
      1543   1.543          0              4.4372864e-09 -3590.5414      0              4.9770056      4.3102133      235.31956      5092.0776      5092.0776      9.9778033e-08  5.1389932e-07  1.5257507e-10 -7.9115281e-11
      1544   1.544          1.9553109e-20  4.4312112e-09 -3590.5414      8.770209e-22   4.9770056      4.3102133      235.31956      5092.0776      5092.0776      1.0003343e-07  5.138686e-07   1.6159567e-10 -1.1275755e-10
Loop time of 0.0213394 on 2 procs for 1 steps with 348 atoms

107.8% CPU use with 1 MPI tasks x 2 OpenMP threads

Minimization stats:
  Stopping criterion = force tolerance
  Energy initial, next-to-last, final = 
     -3590.54140693282  -3590.54140693282  -3590.54140693282
  Force two-norm initial, final = 4.4372864e-09 4.4312112e-09
  Force max component initial, final = 9.0333718e-10 9.0204483e-10
  Final line search alpha, max atom move = 0 0
  Iterations, force evaluations = 1 2

MPI task timing breakdown:
Section |  min time  |  avg time  |  max time  |%varavg| %total
---------------------------------------------------------------
Pair    | 0.021249   | 0.021249   | 0.021249   |   0.0 | 99.58
Neigh   | 0          | 0          | 0          |   0.0 |  0.00
Comm    | 5.9611e-05 | 5.9611e-05 | 5.9611e-05 |   0.0 |  0.28
Output  | 0          | 0          | 0          |   0.0 |  0.00
Modify  | 0          | 0          | 0          |   0.0 |  0.00
Other   |            | 3.076e-05  |            |       |  0.14

Nlocal:            348 ave         348 max         348 min
Histogram: 1 0 0 0 0 0 0 0 0 0
Nghost:           7400 ave        7400 max        7400 min
Histogram: 1 0 0 0 0 0 0 0 0 0
Neighs:              0 ave           0 max           0 min
Histogram: 1 0 0 0 0 0 0 0 0 0
FullNghs:        39708 ave       39708 max       39708 min
Histogram: 1 0 0 0 0 0 0 0 0 0

Total # of neighbors = 39708
Ave neighs/atom = 114.10345
Neighbor list builds = 0
Dangerous builds = 0


write_data      fire_cg_${name}.data
write_data      fire_cg_lmps.data
System init for write_data ...

write_data      bi_minimised.data
System init for write_data ...

print """- step: $(step)
  atoms: $(atoms)
  temp: $(temp)
  press: $(press)
  pe: $(pe)
  ke: $(ke)
  etotal: $(etotal)
  vol: $(vol)
  avecx: $(avecx)
  avecy: $(avecy)
  avecz: $(avecz)
  bvecx: $(bvecx)
  bvecy: $(bvecy)
  bvecz: $(bvecz)
  cvecx: $(cvecx)
  cvecy: $(cvecy)
  cvecz: $(cvecz)
  lx: $(lx)
  ly: $(ly)
  lz: $(lz)
  cella: $(cella)
  cellb: $(cellb)
  cellc: $(cellc)
  cellalpha: $(cellalpha)
  cellbeta: $(cellbeta)
  cellgamma: $(cellgamma)
  pxx: $(pxx)
  pyy: $(pyy)
  pzz: $(pzz)
  pxy: $(pxy)
  pyz: $(pyz)
  pxz: $(pxz)
  xlo: $(xlo)
  xhi: $(xhi)
  ylo: $(ylo)
  yhi: $(yhi)
  zlo: $(zlo)
  zhi: $(zhi)
  xy: $(xy)
  xz: $(xz)
  yz: $(yz)
""" file bi_minimised.data.yaml screen yes universe no
- step: 1544
  atoms: 348
  temp: 1.955310933995899636e-20
  press: 3394.718394750247171
  pe: -3590.5414069328239748
  ke: 8.7702089872393213906e-22
  etotal: -3590.5414069328239748
  vol: 5048.0647394678726414
  avecx: 4.9770056176543331361
  avecy: 0
  avecz: 0
  bvecx: -2.4885028088300003013
  bvecy: 4.3102132996662358977
  bvecz: 0
  cvecx: 0
  cvecy: 0
  cvecz: 235.31955711563290379
  lx: 4.9770056176543331361
  ly: 4.3102132996662358977
  lz: 235.31955711563290379
  cella: 4.9770056176543331361
  cellb: 4.9770056176555090843
  cellc: 235.31955711563290379
  cellalpha: 90
  cellbeta: 90
  cellgamma: 120.00000000002985701
  pxx: 5092.0775920253754521
  pyy: 5092.0775921253343768
  pzz: 1.0003342857222117808e-07
  pxy: 5.1386859524248527725e-07
  pyz: -1.1275755484868082371e-10
  pxz: 1.615956707925283472e-10
  xlo: -0.019038925427171102256
  xhi: 4.9579666922271616869
  ylo: -0.016488193083117452103
  yhi: 4.293725106583118567
  zlo: -8.523894595416161124
  zhi: 226.79566252021675155
  xy: -2.4885028088300003013
  xz: 0
  yz: 0

[GRACE:debug, proc #0]: Data preparation timer: 1.29502e+06 mcs, graph execution time: 2.06519e+07 mcs, data preparation time fraction: 5.90 %
Total wall time: 0:00:26
