
thermo          10
thermo_style    custom step time temp fnorm pe ke lx ly lz pxx pyy pzz pxy pxz pyz

timestep        0.001

min_style       fire
minimize        0.0 1.0e-8 2000 4000

CITE-CITE-CITE-CITE-CITE-CITE-CITE-CITE-CITE-CITE-CITE-CITE-CITE

Your simulation uses code contributions which should be cited:

- Type Label Framework: https://doi.org/10.1021/acs.jpcb.3c08419

@Article{Gissinger24,
 author = {Jacob R. Gissinger, Ilia Nikiforov, Yaser Afshar, Brendon Waters, Moon-ki Choi, Daniel S. Karls, Alexander Stukowski, Wonpil Im, Hendrik Heinz, Axel Kohlmeyer, and Ellad B. Tadmor},
 title = {Type Label Framework for Bonded Force Fields in LAMMPS},
 journal = {J. Phys. Chem. B},
 year =    2024,
 volume =  128,
 number =  13,
 pages =   {3282–-3297}
}

CITE-CITE-CITE-CITE-CITE-CITE-CITE-CITE-CITE-CITE-CITE-CITE-CITE

Switching to 'neigh_modify every 1 delay 0 check yes' setting during minimization
Neighbor list info ...
  update: every = 1 steps, delay = 0 steps, check = yes
  max neighbors/atom: 2000, page size: 100000
  master list distance cutoff = 7.4
  ghost atom cutoff = 7.4
  binsize = 3.7, bins = 2 2 56
  1 neighbor lists, perpetual/occasional/extra = 1 0 0
  (1) pair grace, perpetual
      attributes: full, newton on
      pair build: full/bin/atomonly
      stencil: full/bin/3d
      bin: standard
  Parameters for fire:
    dmax  delaystep dtgrow dtshrink alpha0 alphashrink tmax tmin   integrator   halfstepback   abcfire  
     0.1     20      1.1     0.5     0.25     0.99      10  0.02 eulerimplicit      yes          no     
[GRACE] Atoms padding: new num. of atoms = 322 (incl. 0.932% fake atoms)
[GRACE] Neighbours padding: extending new num. of neighbours = 21974 (incl. 0.992% fake neighbours)
Per MPI rank memory allocation (min/avg/max) = 4.492 | 4.492 | 4.492 Mbytes
   Step          Time           Temp          Fnorm          PotEng         KinEng           Lx             Ly             Lz            Pxx            Pyy            Pzz            Pxy            Pxz            Pyz      
         0   0              0              46.018051     -3129.8253      0              4.8541311      4.2038008      204.31755      163232.63      163232.63      330129.24      1.4728729e-05  1.8362574e-10  7.4469965e-11
        10   0.01           246.43454      40.094282     -3144.1801      10.129624      4.8541311      4.2038008      204.31755      148069.68      148069.68      324298.61      1.4421583e-05 -2.4725462e-11  1.6294234e-10
        20   0.02           747.39531      26.746942     -3171.9843      30.721479      4.8541311      4.2038008      204.31755      119993.92      119993.92      312984.03      1.3767815e-05 -1.9357933e-10 -3.5669899e-10
        30   0.070738431    1507.3613      4.3364437     -3199.3258      61.959672      4.8541311      4.2038008      204.31755      102600.78      102600.78      291550.59      1.2292542e-05 -7.6845506e-11  8.2207286e-11
        40   0.057062334    1.6063044      3.0551247     -3200.1368      0.066026703    4.8541311      4.2038008      204.31755      106316.58      106316.58      233966.28      1.1887522e-05 -1.9812229e-10  2.0642447e-10
        50   0.071327918    6.7276946      1.8892933     -3200.3411      0.27654004     4.8541311      4.2038008      204.31755      106317.62      106317.62      234047.41      1.1903899e-05 -3.4841947e-10  8.595937e-11 
        60   0.16679752     9.7709685      0.53947353    -3200.4933      0.40163299     4.8541311      4.2038008      204.31755      106618.84      106618.84      234019.37      1.1919016e-05 -9.1855969e-11  1.033466e-10 
        70   0.50473478     4.6247435      0.20077675    -3200.5809      0.19009881     4.8541311      4.2038008      204.31755      106513.43      106513.43      233626.33      1.1888589e-05 -9.5984836e-11  4.7158553e-12
        80   0.8            1.9932896      0.10123729    -3200.626       0.081933624    4.8541311      4.2038008      204.31755      106387.71      106387.71      233537.79      1.1876018e-05  6.4397478e-11 -1.0330811e-10
        90   0.9            0.7494857      0.064351616   -3200.6404      0.030807404    4.8541311      4.2038008      204.31755      106381.8       106381.8       233448.04      1.1874097e-05  2.0799229e-11  1.0725544e-11
       100   1              0.45278344     0.033565413   -3200.6473      0.018611539    4.8541311      4.2038008      204.31755      106372.2       106372.2       233424.61      1.1872024e-05 -1.7708114e-10 -3.2779981e-11
       110   1.1            0.34050055     0.036578344   -3200.6518      0.013996182    4.8541311      4.2038008      204.31755      106355.96      106355.96      233425.44      1.1869532e-05  1.0252115e-10  1.0137491e-10
       120   1.2            0.28839859     0.019778604   -3200.6551      0.011854545    4.8541311      4.2038008      204.31755      106349.41      106349.41      233418.97      1.1867158e-05  1.3071532e-10  7.738348e-11 
       130   1.3            0.25148806     0.03285467    -3200.6574      0.010337348    4.8541311      4.2038008      204.31755      106343.61      106343.61      233415.17      1.1864843e-05  1.7884189e-10 -6.5260885e-12
       140   1.4            0.17249064     0.015403785   -3200.6589      0.0070901804   4.8541311      4.2038008      204.31755      106339.84      106339.84      233412.49      1.1862964e-05 -1.3972696e-10  2.4014329e-10
       150   1.5            0.11668562     0.014691679   -3200.6598      0.0047963303   4.8541311      4.2038008      204.31755      106336.73      106336.73      233411.65      1.1860624e-05  7.8497213e-11 -1.2376798e-11
       160   1.6            0.078392748    0.014785258   -3200.6603      0.0032223124   4.8541311      4.2038008      204.31755      106334.02      106334.02      233410.39      1.1858715e-05  1.249614e-10  -1.2595127e-10
       170   1.7            0.038328684    0.0051664996  -3200.6605      0.00157549     4.8541311      4.2038008      204.31755      106331.34      106331.34      233410.3       1.1856924e-05 -8.6263646e-11  1.3011047e-10
       180   1.8            0.014184569    0.009909789   -3200.6606      0.00058305284  4.8541311      4.2038008      204.31755      106330.35      106330.35      233410.68      1.1854962e-05  5.440555e-11  -3.4273149e-11
       190   0.95           5.194296e-06   0.0029969822  -3200.6606      2.1351011e-07  4.8541311      4.2038008      204.31755      106329.85      106329.85      233410.49      1.1854394e-05 -1.5969136e-10 -5.2670314e-11
       200   0.5            1.4712201e-07  0.00072710921 -3200.6606      6.04741e-09    4.8541311      4.2038008      204.31755      106329.78      106329.78      233410.42      1.1854261e-05 -6.2886575e-11  1.8772182e-11
       210   0.525          7.7495772e-07  0.00067295876 -3200.6606      3.1854425e-08  4.8541311      4.2038008      204.31755      106329.78      106329.78      233410.42      1.1854165e-05  1.9625431e-12  4.3092481e-12
       220   0.97435855     2.1072242e-06  0.00065272397 -3200.6606      8.6616875e-08  4.8541311      4.2038008      204.31755      106329.78      106329.78      233410.42      1.1854121e-05 -4.2664484e-12  1.1370034e-11
       230   2.3            8.8825901e-06  0.00063769768 -3200.6606      3.6511643e-07  4.8541311      4.2038008      204.31755      106329.76      106329.76      233410.43      1.1853993e-05  2.8201459e-11 -1.894218e-11 
       240   2.4            2.474845e-05   0.00059548954 -3200.6606      1.0172783e-06  4.8541311      4.2038008      204.31755      106329.73      106329.73      233410.45      1.1853886e-05 -3.2639865e-11 -9.4883082e-11
       250   2.5            4.7804377e-05  0.00053920668 -3200.6606      1.9649858e-06  4.8541311      4.2038008      204.31755      106329.7       106329.7       233410.49      1.1853404e-05  1.2842088e-11  2.0973631e-10
       260   2.6            7.573212e-05   0.00046693782 -3200.6606      3.112948e-06   4.8541311      4.2038008      204.31755      106329.64      106329.64      233410.53      1.1852864e-05  5.9735995e-11 -1.2193849e-10
       270   2.7            7.8287871e-05  0.00040529939 -3200.6606      3.2180015e-06  4.8541311      4.2038008      204.31755      106329.57      106329.57      233410.59      1.1852086e-05 -8.5415055e-11 -1.1684594e-10
       280   2.8            7.3941878e-05  0.00033504428 -3200.6606      3.0393606e-06  4.8541311      4.2038008      204.31755      106329.5       106329.5       233410.64      1.185139e-05   2.2561553e-11  4.915184e-13 
       290   2.9            5.4374255e-05  0.00048011347 -3200.6606      2.2350389e-06  4.8541311      4.2038008      204.31755      106329.44      106329.44      233410.69      1.185033e-05  -8.964906e-11  -4.6830801e-11
       300   3              4.1334386e-05  0.00019610085 -3200.6606      1.6990386e-06  4.8541311      4.2038008      204.31755      106329.39      106329.39      233410.74      1.1849401e-05  7.8217052e-12 -6.2994002e-11
       310   3.1            2.6928602e-05  0.00014887529 -3200.6606      1.1068928e-06  4.8541311      4.2038008      204.31755      106329.35      106329.35      233410.77      1.1848567e-05 -3.4636141e-11  1.3555156e-10
       320   3.2            1.7125341e-05  9.2820328e-05 -3200.6606      7.0393247e-07  4.8541311      4.2038008      204.31755      106329.31      106329.31      233410.8       1.1847653e-05 -1.9356056e-10 -1.6871377e-10
       330   3.3            1.2068022e-05  9.3475079e-05 -3200.6606      4.9605272e-07  4.8541311      4.2038008      204.31755      106329.28      106329.28      233410.82      1.1846278e-05  4.402619e-11  -8.4570104e-11
       340   3.4            5.111872e-06   0.00012497411 -3200.6606      2.101221e-07   4.8541311      4.2038008      204.31755      106329.27      106329.27      233410.85      1.1845473e-05 -1.3805511e-10  3.6290686e-10
       350   3.5            1.8216422e-06  6.6212396e-05 -3200.6606      7.4878104e-08  4.8541311      4.2038008      204.31755      106329.24      106329.24      233410.85      1.1844495e-05  3.463516e-10  -1.2525451e-10
       360   1.8            6.8601174e-10  8.3988231e-06 -3200.6606      2.8198325e-11  4.8541311      4.2038008      204.31755      106329.25      106329.25      233410.86      1.1843588e-05  1.1945931e-11  2.9544903e-11
       370   0.925          2.1249154e-11  4.597576e-06  -3200.6606      8.7344065e-13  4.8541311      4.2038008      204.31755      106329.25      106329.25      233410.86      1.1843502e-05  7.6709826e-11  6.4742575e-11
       380   0.95           4.1508094e-11  2.411983e-06  -3200.6606      1.7061788e-12  4.8541311      4.2038008      204.31755      106329.25      106329.25      233410.86      1.1843646e-05 -2.4361128e-11  2.1481312e-11
       390   2.298999       6.8369101e-11  2.1641532e-06 -3200.6606      2.8102932e-12  4.8541311      4.2038008      204.31755      106329.25      106329.25      233410.86      1.1843631e-05 -5.3329942e-12  2.1886616e-11
       400   4              2.0310482e-10  2.0434843e-06 -3200.6606      8.3485681e-12  4.8541311      4.2038008      204.31755      106329.25      106329.25      233410.86      1.1843614e-05 -5.1666071e-11 -7.1675537e-12
       410   4.1            4.3400326e-10  1.870979e-06  -3200.6606      1.7839585e-11  4.8541311      4.2038008      204.31755      106329.25      106329.25      233410.86      1.1843365e-05 -5.0002178e-11 -5.6999064e-11
       420   4.2            7.2711713e-10  1.6497225e-06 -3200.6606      2.9887951e-11  4.8541311      4.2038008      204.31755      106329.25      106329.25      233410.86      1.1843018e-05 -6.4848921e-12  6.6555549e-12
       430   4.3            7.836173e-10   1.4018641e-06 -3200.6606      3.2210374e-11  4.8541311      4.2038008      204.31755      106329.25      106329.25      233410.86      1.1842399e-05  9.3135455e-11  1.2084571e-10
       440   4.4            7.9714203e-10  1.4497645e-06 -3200.6606      3.2766305e-11  4.8541311      4.2038008      204.31755      106329.25      106329.25      233410.86      1.1842146e-05  4.6333052e-11 -1.2477075e-10
       450   4.5            6.1111781e-10  9.6613128e-07 -3200.6606      2.511983e-11   4.8541311      4.2038008      204.31755      106329.24      106329.24      233410.86      1.1841534e-05  6.4763923e-11 -4.5842427e-11
       460   4.6            5.2255948e-10  1.4442176e-06 -3200.6606      2.1479664e-11  4.8541311      4.2038008      204.31755      106329.24      106329.24      233410.86      1.1841184e-05 -4.9319531e-11 -7.5729045e-12
       470   4.7            3.3307469e-10  1.1819054e-06 -3200.6606      1.3690944e-11  4.8541311      4.2038008      204.31755      106329.24      106329.24      233410.86      1.184058e-05  -3.8781549e-11  1.073852e-10 
       480   4.8            1.9083814e-10  1.2396067e-06 -3200.6606      7.8443495e-12  4.8541311      4.2038008      204.31755      106329.24      106329.24      233410.86      1.184005e-05   9.3857614e-13  4.1810804e-12
       490   4.9            7.38261e-11    6.81183e-07   -3200.6606      3.0346016e-12  4.8541311      4.2038008      204.31755      106329.24      106329.24      233410.86      1.1839537e-05  4.0317453e-11  2.9651292e-12
       500   5              3.5792414e-11  3.1788415e-07 -3200.6606      1.4712374e-12  4.8541311      4.2038008      204.31755      106329.24      106329.24      233410.86      1.1839152e-05  8.3792046e-11  3.0462068e-11
       510   5.1            2.0383767e-11  3.0464989e-07 -3200.6606      8.3786918e-13  4.8541311      4.2038008      204.31755      106329.24      106329.24      233410.86      1.1838704e-05  2.4531779e-11 -6.107347e-11 
       520   5.2            1.3084697e-11  1.6143213e-07 -3200.6606      5.378429e-13   4.8541311      4.2038008      204.31755      106329.24      106329.24      233410.86      1.1838625e-05  9.697521e-11  -3.0974043e-11
       530   5.3            9.2599676e-12  1.7063428e-07 -3200.6606      3.8062843e-13  4.8541311      4.2038008      204.31755      106329.24      106329.24      233410.86      1.1838282e-05 -2.286789e-11   1.9753417e-11
       540   5.4            6.7452942e-12  1.1138254e-07 -3200.6606      2.7726347e-13  4.8541311      4.2038008      204.31755      106329.24      106329.24      233410.86      1.1837765e-05  1.8055393e-10 -5.8023021e-12
       550   5.5            5.0076647e-12  1.3187065e-07 -3200.6606      2.0583869e-13  4.8541311      4.2038008      204.31755      106329.24      106329.24      233410.86      1.1837373e-05  1.9215853e-10  1.5416627e-10
       560   5.6            3.4265022e-12  9.6736778e-08 -3200.6606      1.4084544e-13  4.8541311      4.2038008      204.31755      106329.24      106329.24      233410.86      1.1837064e-05  1.4923858e-10  3.0483407e-11
       570   5.7            2.1809107e-12  8.2896109e-08 -3200.6606      8.9645737e-14  4.8541311      4.2038008      204.31755      106329.24      106329.24      233410.86      1.1836804e-05 -1.4847062e-11 -1.6809605e-11
       580   5.8            1.2460763e-12  7.0062752e-08 -3200.6606      5.1219626e-14  4.8541311      4.2038008      204.31755      106329.24      106329.24      233410.86      1.1836456e-05 -1.7406899e-11  6.9051642e-11
       586   2.93           6.1448195e-16  6.2457033e-09 -3200.6606      2.5258112e-17  4.8541311      4.2038008      204.31755      106329.24      106329.24      233410.86      1.1836343e-05  1.3481815e-11  1.0734256e-10
Loop time of 3.81463 on 2 procs for 586 steps with 319 atoms

100.9% CPU use with 1 MPI tasks x 2 OpenMP threads

Minimization stats:
  Stopping criterion = force tolerance
  Energy initial, next-to-last, final = 
     -3129.82527824171  -3200.66062118791  -3200.66062118791
  Force two-norm initial, final = 46.018051 6.2457033e-09
  Force max component initial, final = 3.7055665 2.9630141e-09
  Final line search alpha, max atom move = 0 0
  Iterations, force evaluations = 586 593

MPI task timing breakdown:
Section |  min time  |  avg time  |  max time  |%varavg| %total
---------------------------------------------------------------
Pair    | 3.7938     | 3.7938     | 3.7938     |   0.0 | 99.45
Neigh   | 0          | 0          | 0          |   0.0 |  0.00
Comm    | 0.01403    | 0.01403    | 0.01403    |   0.0 |  0.37
Output  | 0.0019821  | 0.0019821  | 0.0019821  |   0.0 |  0.05
Modify  | 0          | 0          | 0          |   0.0 |  0.00
Other   |            | 0.004797   |            |       |  0.13

Nlocal:            319 ave         319 max         319 min
Histogram: 1 0 0 0 0 0 0 0 0 0
Nghost:           6847 ave        6847 max        6847 min
Histogram: 1 0 0 0 0 0 0 0 0 0
Neighs:              0 ave           0 max           0 min
Histogram: 1 0 0 0 0 0 0 0 0 0
FullNghs:        40020 ave       40020 max       40020 min
Histogram: 1 0 0 0 0 0 0 0 0 0

Total # of neighbors = 40020
Ave neighs/atom = 125.45455
Neighbor list builds = 0
Dangerous builds = 0

#write_data      fire_${name}.data

fix             3 all box/relax z 0.0 vmax 0.001
min_style       cg
minimize        0.0 1.0e-8 1000 2000
Switching to 'neigh_modify every 1 delay 0 check yes' setting during minimization
WARNING: Energy due to 3 extra global DOFs will be included in minimizer energies
 (src/min.cpp:219)
Per MPI rank memory allocation (min/avg/max) = 5.619 | 5.619 | 5.619 Mbytes
   Step          Time           Temp          Fnorm          PotEng         KinEng           Lx             Ly             Lz            Pxx            Pyy            Pzz            Pxy            Pxz            Pyz      
       586   0.586          6.1448195e-16  6.2458022e-09 -3200.6606      2.5258112e-17  4.8541311      4.2038008      204.31755      106329.24      106329.24      233410.86      1.1836359e-05  6.1009481e-11  1.6926131e-10
       590   0.59           6.1448195e-16  0.20277576    -3202.9967      2.5258112e-17  4.8541311      4.2038008      205.13482      98969.115      98969.115      215542.15      1.1593019e-05  9.1957009e-11  3.1612878e-11
       600   0.6            6.1448195e-16  0.66902744    -3208.0503      2.5258112e-17  4.8541311      4.2038008      207.17799      81275.404      81275.404      173450.71      1.1027465e-05  2.5825588e-10  2.5300704e-10
       610   0.61           6.1448195e-16  1.083956      -3212.0527      2.5258112e-17  4.8541311      4.2038008      209.22117      64526.906      64526.906      134679.59      1.0521273e-05  2.6881636e-10  3.5764409e-10
       620   0.62           6.1448195e-16  1.4552311     -3215.0848      2.5258112e-17  4.8541311      4.2038008      211.26434      48655.595      48655.595      98797.952      1.0070717e-05  2.8717723e-10  6.0477419e-10
       630   0.63           6.1448195e-16  1.7891025     -3217.2165      2.5258112e-17  4.8541311      4.2038008      213.30752      33606.786      33606.786      65420.458      9.6719322e-06  2.4061827e-10  5.8858097e-10
       640   0.64           6.1448195e-16  2.0899008     -3218.5089      2.5258112e-17  4.8541311      4.2038008      215.35069      19337.687      19337.687      34218.617      9.3199441e-06  2.4242366e-10  4.7868451e-10
       650   0.65           6.1448195e-16  2.3576508     -3219.0154      2.5258112e-17  4.8541311      4.2038008      217.39387      5814.9881      5814.9881      4928.0306      9.009607e-06   1.9696e-10     4.4917966e-10
       660   0.66           6.1448195e-16  0.09622028    -3219.4323      2.5258112e-17  4.8541311      4.2038008      217.99901      414.35427      414.35427      7.1822811      9.0216034e-06 -1.03005e-10   -9.1463919e-11
       670   0.67           6.1448195e-16  0.081559697   -3219.4332      2.5258112e-17  4.8541311      4.2038008      218.00547      359.65519      359.65519      33.916975      9.0244552e-06  1.7961364e-10  1.0070279e-10
       680   0.68           6.1448195e-16  0.099372152   -3219.4336      2.5258112e-17  4.8541311      4.2038008      218.00653      360.96547      360.96547     -25.466726      8.9837492e-06 -1.5194312e-11 -2.2951909e-10
       690   0.69           6.1448195e-16  0.058549019   -3219.4339      2.5258112e-17  4.8541311      4.2038008      218.00879      349.28777      349.28777     -60.327894      9.0119646e-06 -7.333179e-11  -2.2201459e-11
       700   0.7            6.1448195e-16  0.028350357   -3219.4342      2.5258112e-17  4.8541311      4.2038008      218.00542      369.84989      369.84989     -2.1986683      9.0176046e-06  3.542692e-11   8.3269255e-11
       710   0.71           6.1448195e-16  0.018256212   -3219.4343      2.5258112e-17  4.8541311      4.2038008      218.0046       378.38321      378.38321     -1.597178       9.0167076e-06  7.9490949e-11 -3.6976486e-11
       720   0.72           6.1448195e-16  0.024596186   -3219.4346      2.5258112e-17  4.8541311      4.2038008      217.99751      417.14438      417.14438      110.41318      9.0146682e-06  1.1700105e-10 -2.0175783e-10
       730   0.73           6.1448195e-16  0.026446813   -3219.4346      2.5258112e-17  4.8541311      4.2038008      218.00513      369.04318      369.04318      0.47077423     9.0159324e-06 -1.5866163e-10  2.4735899e-10
       740   0.74           6.1448195e-16  0.027127742   -3219.4347      2.5258112e-17  4.8541311      4.2038008      218.00422      376.39936      376.39936      11.159645      9.0124368e-06  4.1792799e-10 -1.7455151e-10
       750   0.75           6.1448195e-16  0.022199391   -3219.4347      2.5258112e-17  4.8541311      4.2038008      218.00491      376.10394      376.10394      1.6557341      9.0087368e-06  3.0860677e-10 -1.6704371e-10
       760   0.76           6.1448195e-16  0.02399715    -3219.4348      2.5258112e-17  4.8541311      4.2038008      218.00539      369.24188      369.24188      4.2973121      9.0151205e-06 -5.5155643e-10  3.7316727e-10
       770   0.77           6.1448195e-16  0.021770496   -3219.4348      2.5258112e-17  4.8541311      4.2038008      218.00475      374.42001      374.42001      5.5932921      9.0169937e-06  1.0947991e-09 -5.0466521e-10
       780   0.78           6.1448195e-16  0.025315315   -3219.4348      2.5258112e-17  4.8541311      4.2038008      218.00428      379.31238      379.31238      8.035173       9.020055e-06  -1.0239473e-09  2.684023e-11 
       790   0.79           6.1448195e-16  0.023873056   -3219.4349      2.5258112e-17  4.8541311      4.2038008      218.00494      374.09334      374.09334      10.041832      9.0064757e-06  4.2224503e-11  4.6232532e-10
       800   0.8            6.1448195e-16  0.022994442   -3219.4349      2.5258112e-17  4.8541311      4.2038008      218.00485      371.30479      371.30479      15.998768      9.009393e-06   1.2202727e-09 -5.1762524e-10
       810   0.81           6.1448195e-16  0.013275261   -3219.4349      2.5258112e-17  4.8541311      4.2038008      218.00527      369.73444      369.73444     -2.5996963      9.0092722e-06 -1.3530213e-09  1.2024968e-09
       820   0.82           6.1448195e-16  0.017026223   -3219.4349      2.5258112e-17  4.8541311      4.2038008      218.00524      371.82849      371.82849     -5.5800583      9.0127993e-06 -1.6578692e-09  1.7376148e-09
       830   0.83           6.1448195e-16  0.013898689   -3219.4349      2.5258112e-17  4.8541311      4.2038008      218.0055       372.78813      372.78813     -7.1974637      9.0161285e-06 -1.2243475e-09  1.4656983e-09
       840   0.84           6.1448195e-16  0.014641981   -3219.4349      2.5258112e-17  4.8541311      4.2038008      218.00725      360.6367       360.6367      -25.560568      9.0175392e-06  6.4135779e-11  1.2625232e-11
       850   0.85           6.1448195e-16  0.02073006    -3219.4349      2.5258112e-17  4.8541311      4.2038008      218.00459      375.45336      375.45336      17.174774      9.0115761e-06 -1.4756208e-09  1.4359403e-09
       860   0.86           6.1448195e-16  0.015572706   -3219.4349      2.5258112e-17  4.8541311      4.2038008      218.00513      371.06124      371.06124      7.2669478      9.0062459e-06 -2.6732565e-09  2.8455481e-09
       870   0.87           6.1448195e-16  0.013904339   -3219.4349      2.5258112e-17  4.8541311      4.2038008      218.00518      368.85116      368.85116      4.2979236      9.0044191e-06 -2.2602879e-09  2.3262136e-09
       880   0.88           6.1448195e-16  0.014638705   -3219.435       2.5258112e-17  4.8541311      4.2038008      218.0054       367.46997      367.46997      2.122314       9.005254e-06  -1.2571359e-10  9.7978831e-11
       890   0.89           6.1448195e-16  0.01301797    -3219.435       2.5258112e-17  4.8541311      4.2038008      218.00557      365.04868      365.04868     -1.4906104      9.0080939e-06 -3.6834375e-10  2.9309659e-10
       900   0.9            6.1448195e-16  0.011215242   -3219.435       2.5258112e-17  4.8541311      4.2038008      218.00569      365.50812      365.50812     -2.8801891      9.007942e-06  -2.7608172e-09  3.0456267e-09
       910   0.91           6.1448195e-16  0.012274      -3219.435       2.5258112e-17  4.8541311      4.2038008      218.0062       364.96504      364.96504     -7.4099707      9.0116062e-06 -1.9964557e-09  2.3762541e-09
       920   0.92           6.1448195e-16  0.0079637743  -3219.435       2.5258112e-17  4.8541311      4.2038008      218.00535      368.54547      368.54547      3.1727643      9.0127731e-06 -2.2151828e-11 -7.2793146e-11
       930   0.93           6.1448195e-16  0.010368907   -3219.435       2.5258112e-17  4.8541311      4.2038008      218.0055       367.50268      367.50268      2.0445723      9.0060862e-06 -4.6086966e-10 -1.4497142e-10
       940   0.94           6.1448195e-16  0.0065363149  -3219.435       2.5258112e-17  4.8541311      4.2038008      218.00564      366.88128      366.88128      0.66031517     9.0042173e-06 -1.760948e-10  -2.6885046e-11
       950   0.95           6.1448195e-16  0.011582761   -3219.435       2.5258112e-17  4.8541311      4.2038008      218.0056       368.51647      368.51647      0.61897426     9.0211377e-06  5.8570325e-10  5.3330264e-11
       960   0.96           6.1448195e-16  0.0092688171  -3219.435       2.5258112e-17  4.8541311      4.2038008      218.00549      368.43303      368.43303      1.9749681      9.0191999e-06 -2.6406242e-10  3.2053655e-10
       970   0.97           6.1448195e-16  0.0062876921  -3219.435       2.5258112e-17  4.8541311      4.2038008      218.00553      368.1607       368.1607       1.233119       8.9983705e-06  6.3496523e-11 -4.5374723e-10
       980   0.98           6.1448195e-16  0.0063441119  -3219.435       2.5258112e-17  4.8541311      4.2038008      218.0054       368.97246      368.97246      1.1676158      9.0258458e-06 -6.7383126e-10  5.0161983e-10
       990   0.99           6.1448195e-16  0.0076911255  -3219.435       2.5258112e-17  4.8541311      4.2038008      218.0055       367.73212      367.73212      1.4789857      8.9944908e-06  9.6812221e-10 -6.3318599e-10
      1000   1              6.1448195e-16  0.0047658924  -3219.435       2.5258112e-17  4.8541311      4.2038008      218.00554      367.65732      367.65732      0.91484356     9.0187757e-06 -1.360297e-10   5.203276e-10 
      1010   1.01           6.1448195e-16  0.0045990325  -3219.435       2.5258112e-17  4.8541311      4.2038008      218.00538      369.55844      369.55844      0.8676482      9.0105815e-06 -1.0845597e-09 -1.4941986e-10
      1020   1.02           6.1448195e-16  0.0042525515  -3219.435       2.5258112e-17  4.8541311      4.2038008      218.0055       367.70565      367.70565      0.81933756     9.0036739e-06  1.5279153e-09 -3.0609188e-10
      1030   1.03           6.1448195e-16  0.0049576639  -3219.435       2.5258112e-17  4.8541311      4.2038008      218.00564      366.52065      366.52065      0.93011584     9.0275314e-06 -1.2480179e-09  1.1798582e-09
      1040   1.04           6.1448195e-16  0.0049668008  -3219.435       2.5258112e-17  4.8541311      4.2038008      218.00546      368.81367      368.81367      0.95772498     8.9948424e-06 -7.4580449e-10 -8.2545506e-10
      1050   1.05           6.1448195e-16  0.0065190462  -3219.435       2.5258112e-17  4.8541311      4.2038008      218.00528      370.24112      370.24112      1.1532476      9.0278781e-06  3.33725e-09   -8.451385e-11 
      1060   1.06           6.1448195e-16  0.0064501923  -3219.435       2.5258112e-17  4.8541311      4.2038008      218.00555      367.1101       367.1101       1.1387489      8.9998927e-06 -1.0744826e-09  9.2095941e-11
      1070   1.07           6.1448195e-16  0.0054048503  -3219.435       2.5258112e-17  4.8541311      4.2038008      218.00566      366.01403      366.01403      1.0760659      9.0008252e-06 -1.9808665e-09  1.5539246e-11
      1080   1.08           6.1448195e-16  0.0044938267  -3219.435       2.5258112e-17  4.8541311      4.2038008      218.00547      369.26544      369.26544      0.80991796     9.0419033e-06  4.008599e-09   3.0855101e-10
      1090   1.09           6.1448195e-16  0.0034718251  -3219.435       2.5258112e-17  4.8541311      4.2038008      218.00552      367.81236      367.81236      0.64974473     8.9833839e-06 -2.1367301e-09 -4.9877062e-10
      1100   1.1            6.1448195e-16  0.0028778997  -3219.435       2.5258112e-17  4.8541311      4.2038008      218.00565      366.12015      366.12015      0.54319996     9.025208e-06  -6.7790899e-10  8.2963781e-10
      1110   1.11           6.1448195e-16  0.001625468   -3219.435       2.5258112e-17  4.8541311      4.2038008      218.00564      366.52917      366.52917      0.27909948     9.0181275e-06  2.2754775e-09 -2.9303151e-10
      1120   1.12           6.1448195e-16  0.0017644477  -3219.435       2.5258112e-17  4.8541311      4.2038008      218.00556      367.76777      367.76777      0.31701787     8.9896395e-06 -2.0238115e-09 -2.5593034e-10
      1130   1.13           6.1448195e-16  0.0013401703  -3219.435       2.5258112e-17  4.8541311      4.2038008      218.00558      367.59905      367.59905      0.24382069     9.0207296e-06 -1.1264632e-09  8.2299052e-10
      1140   1.14           6.1448195e-16  0.0011100555  -3219.435       2.5258112e-17  4.8541311      4.2038008      218.00563      366.575        366.575        0.2147443      9.0079498e-06  1.4696959e-09 -4.6745695e-10
      1150   1.15           6.1448195e-16  0.0014031475  -3219.435       2.5258112e-17  4.8541311      4.2038008      218.00566      366.5482       366.5482       0.2550648      8.9962097e-06 -9.8011705e-10 -1.8735062e-10
      1160   1.16           6.1448195e-16  0.0010095879  -3219.435       2.5258112e-17  4.8541311      4.2038008      218.0056       367.14605      367.14605      0.19046529     9.0186854e-06 -8.741565e-10   5.2788964e-10
      1170   1.17           6.1448195e-16  0.0013107869  -3219.435       2.5258112e-17  4.8541311      4.2038008      218.00559      367.34187      367.34187      0.24352718     8.9939027e-06  2.0391655e-09 -9.3643852e-10
      1180   1.18           6.1448195e-16  0.00099555316 -3219.435       2.5258112e-17  4.8541311      4.2038008      218.00563      366.85078      366.85078      0.18509205     9.0106293e-06  4.1160763e-10 -2.3886158e-11
      1190   1.19           6.1448195e-16  0.0008573696  -3219.435       2.5258112e-17  4.8541311      4.2038008      218.00564      366.66441      366.66441      0.16070791     9.0189894e-06 -1.8318818e-09  7.0317966e-10
      1200   1.2            6.1448195e-16  0.0007158566  -3219.435       2.5258112e-17  4.8541311      4.2038008      218.00563      366.97522      366.97522      0.13217868     8.9929109e-06  8.317721e-10  -9.0004683e-10
      1210   1.21           6.1448195e-16  0.00069928048 -3219.435       2.5258112e-17  4.8541311      4.2038008      218.00562      366.96744      366.96744      0.13296124     9.0176609e-06  5.4779723e-10  5.2857934e-10
      1220   1.22           6.1448195e-16  0.00053709515 -3219.435       2.5258112e-17  4.8541311      4.2038008      218.00564      366.77129      366.77129      0.10137274     9.009663e-06  -1.0494514e-09  3.0448227e-10
      1230   1.23           6.1448195e-16  0.00061361458 -3219.435       2.5258112e-17  4.8541311      4.2038008      218.00563      366.7557       366.7557       0.11105942     8.9893883e-06  1.040015e-09  -1.5150691e-09
      1240   1.24           6.1448195e-16  0.0005973533  -3219.435       2.5258112e-17  4.8541311      4.2038008      218.00563      366.97565      366.97565      0.11443267     9.0276311e-06  3.8577719e-10  9.0453516e-10
      1250   1.25           6.1448195e-16  0.00094206264 -3219.435       2.5258112e-17  4.8541311      4.2038008      218.00562      366.97995      366.97995      0.174504       8.9979165e-06 -3.2110514e-09  1.0999728e-09
      1260   1.26           6.1448195e-16  0.00076738468 -3219.435       2.5258112e-17  4.8541311      4.2038008      218.00563      366.80559      366.80559      0.14177707     8.993277e-06   3.1692267e-10 -1.2997638e-09
      1270   1.27           6.1448195e-16  0.0010950876  -3219.435       2.5258112e-17  4.8541311      4.2038008      218.00564      366.82019      366.82019      0.19912843     9.0550784e-06  4.5112898e-09  7.3067448e-10
      1280   1.28           6.1448195e-16  0.00097893857 -3219.435       2.5258112e-17  4.8541311      4.2038008      218.00562      366.96083      366.96083      0.17781728     8.9820942e-06 -1.9293659e-09  9.4858389e-10
      1290   1.29           6.1448195e-16  0.00090164005 -3219.435       2.5258112e-17  4.8541311      4.2038008      218.00561      367.05167      367.05167      0.16434232     9.0127014e-06 -1.2855242e-09 -4.6594755e-10
      1300   1.3            6.1448195e-16  0.00070039777 -3219.435       2.5258112e-17  4.8541311      4.2038008      218.00563      366.90905      366.90905      0.1293732      9.0304595e-06  2.525945e-09  -9.1198741e-10
      1310   1.31           6.1448195e-16  0.00055377129 -3219.435       2.5258112e-17  4.8541311      4.2038008      218.00563      366.90075      366.90075      0.10189863     8.9723835e-06 -1.4461046e-09  6.5054417e-10
      1320   1.32           6.1448195e-16  0.00046075538 -3219.435       2.5258112e-17  4.8541311      4.2038008      218.00562      366.93801      366.93801      0.089896013    9.0288123e-06 -2.1112185e-11  6.3038665e-10
      1330   1.33           6.1448195e-16  0.000383692   -3219.435       2.5258112e-17  4.8541311      4.2038008      218.00562      366.99161      366.99161      0.083329476    9.004375e-06   9.5492653e-10 -1.5825992e-09
      1340   1.34           6.1448195e-16  0.00028476475 -3219.435       2.5258112e-17  4.8541311      4.2038008      218.00563      366.93683      366.93683      0.069185064    8.988403e-06  -6.3040664e-10  4.8851916e-11
      1350   1.35           6.1448195e-16  0.00032653418 -3219.435       2.5258112e-17  4.8541311      4.2038008      218.00563      366.93946      366.93946      0.094965449    9.0350853e-06  3.3427626e-11  1.491103e-09 
      1360   1.36           6.1448195e-16  0.00032941951 -3219.435       2.5258112e-17  4.8541311      4.2038008      218.00562      366.97068      366.97068      0.10776408     9.0065779e-06  3.6618446e-10 -1.0175983e-09
      1370   1.37           6.1448195e-16  0.00031533848 -3219.435       2.5258112e-17  4.8541311      4.2038008      218.00562      367.01533      367.01533      0.11182488     8.974111e-06  -8.5248445e-11 -1.6848363e-09
      1380   1.38           6.1448195e-16  0.00029796993 -3219.435       2.5258112e-17  4.8541311      4.2038008      218.00562      366.97911      366.97911      0.11559243     9.0158001e-06  5.8298421e-11  1.2882931e-09
      1390   1.39           6.1448195e-16  0.0003002629  -3219.435       2.5258112e-17  4.8541311      4.2038008      218.00562      366.97145      366.97145      0.12516507     9.0333531e-06 -1.2539359e-10  1.83699e-09  
      1400   1.4            6.1448195e-16  0.00030514591 -3219.435       2.5258112e-17  4.8541311      4.2038008      218.00562      366.96316      366.96316      0.12789564     8.9936026e-06 -1.3594968e-11 -8.1485838e-10
      1410   1.41           6.1448195e-16  0.00024665098 -3219.435       2.5258112e-17  4.8541311      4.2038008      218.00562      366.96974      366.96974      0.10751407     8.9841643e-06  1.6905742e-10 -1.7340481e-09
      1420   1.42           6.1448195e-16  0.00022533045 -3219.435       2.5258112e-17  4.8541311      4.2038008      218.00562      367.00498      367.00498      0.10238053     9.0085893e-06  3.2228071e-10 -1.5899115e-10
      1430   1.43           6.1448195e-16  0.00020998432 -3219.435       2.5258112e-17  4.8541311      4.2038008      218.00562      367.0125       367.0125       0.097162126    9.0304851e-06  6.197706e-11   1.3581923e-09
      1440   1.44           6.1448195e-16  0.00018101285 -3219.435       2.5258112e-17  4.8541311      4.2038008      218.00562      366.99797      366.99797      0.086829021    9.0195028e-06 -4.8254139e-10  1.0890469e-09
      1450   1.45           6.1448195e-16  0.00019151172 -3219.435       2.5258112e-17  4.8541311      4.2038008      218.00562      366.99552      366.99552      0.094775181    8.9918047e-06 -2.007257e-10  -2.8946786e-10
      1460   1.46           6.1448195e-16  0.0001451209  -3219.435       2.5258112e-17  4.8541311      4.2038008      218.00562      366.9754       366.9754       0.072364127    8.9815026e-06  2.0224514e-10 -1.3192167e-09
      1470   1.47           6.1448195e-16  0.00011928054 -3219.435       2.5258112e-17  4.8541311      4.2038008      218.00562      366.9648       366.9648       0.062366676    8.9970741e-06  3.6978312e-10 -9.5435174e-10
      1480   1.48           6.1448195e-16  0.00013212799 -3219.435       2.5258112e-17  4.8541311      4.2038008      218.00562      366.97281      366.97281      0.071849962    9.0203583e-06  3.4915076e-10  3.4913077e-10
      1490   1.49           6.1448195e-16  0.00012786812 -3219.435       2.5258112e-17  4.8541311      4.2038008      218.00562      366.98013      366.98013      0.070277806    9.0327141e-06 -3.1084494e-10  1.5427539e-09
      1500   1.5            6.1448195e-16  0.00012215429 -3219.435       2.5258112e-17  4.8541311      4.2038008      218.00562      366.98285      366.98285      0.068634052    9.0181188e-06 -6.1793127e-10  1.2350928e-09
      1510   1.51           6.1448195e-16  0.00010735073 -3219.435       2.5258112e-17  4.8541311      4.2038008      218.00562      366.98172      366.98172      0.060992386    8.9956844e-06 -7.4348479e-10  2.055889e-10 
      1520   1.52           6.1448195e-16  0.00011792082 -3219.435       2.5258112e-17  4.8541311      4.2038008      218.00562      366.98674      366.98674      0.067763882    8.9860041e-06 -2.9876941e-10 -7.7140946e-10
      1530   1.53           6.1448195e-16  0.00011615113 -3219.435       2.5258112e-17  4.8541311      4.2038008      218.00562      366.98517      366.98517      0.066571832    8.9937637e-06  6.713515e-10  -1.402106e-09 
      1540   1.54           6.1448195e-16  0.00013274782 -3219.435       2.5258112e-17  4.8541311      4.2038008      218.00562      366.9852       366.9852       0.07614678     9.0141429e-06  1.2974397e-09 -6.3291073e-10
      1550   1.55           6.1448195e-16  4.8992221e-05 -3219.435       2.5258112e-17  4.8541311      4.2038008      218.00561      367.06565      367.06565      0.25270634     8.999898e-06  -4.3343959e-10  1.2280455e-11
      1560   1.56           6.1448195e-16  9.174374e-05  -3219.435       2.5258112e-17  4.8541311      4.2038008      218.00563      366.94479      366.94479      0.0047756757   8.9962712e-06  2.9772979e-10 -3.8583217e-10
      1570   1.57           6.1448195e-16  7.1803638e-05 -3219.435       2.5258112e-17  4.8541311      4.2038008      218.00563      366.94303      366.94303     -0.007485447    9.0179668e-06  9.2837633e-10 -8.3044258e-11
      1580   1.58           6.1448195e-16  4.8375931e-05 -3219.435       2.5258112e-17  4.8541311      4.2038008      218.00563      366.91204      366.91204     -0.06268857     8.9996104e-06 -6.0801491e-10  2.0398948e-10
      1586   1.586          6.1448195e-16  5.4060908e-05 -3219.435       2.5258112e-17  4.8541311      4.2038008      218.00565      366.82521      366.82521     -0.25523097     9.0134554e-06  4.5007335e-10 -1.7927362e-10
Loop time of 12.8871 on 2 procs for 1000 steps with 319 atoms

103.0% CPU use with 1 MPI tasks x 2 OpenMP threads

Minimization stats:
  Stopping criterion = max iterations
  Energy initial, next-to-last, final = 
     -3200.66062118791  -3219.43502650579  -3219.43502650585
  Force two-norm initial, final = 607.39329 0.00066637119
  Force max component initial, final = 607.39329 0.00066417466
  Final line search alpha, max atom move = 1 0.00066417466
  Iterations, force evaluations = 1000 1935

MPI task timing breakdown:
Section |  min time  |  avg time  |  max time  |%varavg| %total
---------------------------------------------------------------
Pair    | 12.709     | 12.709     | 12.709     |   0.0 | 98.62
Neigh   | 0.014328   | 0.014328   | 0.014328   |   0.0 |  0.11
Comm    | 0.04229    | 0.04229    | 0.04229    |   0.0 |  0.33
Output  | 0.0017256  | 0.0017256  | 0.0017256  |   0.0 |  0.01
Modify  | 0          | 0          | 0          |   0.0 |  0.00
Other   |            | 0.1197     |            |       |  0.93

Nlocal:            319 ave         319 max         319 min
Histogram: 1 0 0 0 0 0 0 0 0 0
Nghost:           6797 ave        6797 max        6797 min
Histogram: 1 0 0 0 0 0 0 0 0 0
Neighs:              0 ave           0 max           0 min
Histogram: 1 0 0 0 0 0 0 0 0 0
FullNghs:        39024 ave       39024 max       39024 min
Histogram: 1 0 0 0 0 0 0 0 0 0

Total # of neighbors = 39024
Ave neighs/atom = 122.33229
Neighbor list builds = 17
Dangerous builds = 0
unfix           3
min_style       fire
minimize        0.0 1.0e-8 2000 4000
Switching to 'neigh_modify every 1 delay 0 check yes' setting during minimization
  Parameters for fire:
    dmax  delaystep dtgrow dtshrink alpha0 alphashrink tmax tmin   integrator   halfstepback   abcfire  
     0.1     20      1.1     0.5     0.25     0.99      10  0.02 eulerimplicit      yes          no     
Per MPI rank memory allocation (min/avg/max) = 4.494 | 4.494 | 4.494 Mbytes
   Step          Time           Temp          Fnorm          PotEng         KinEng           Lx             Ly             Lz            Pxx            Pyy            Pzz            Pxy            Pxz            Pyz      
      1586   1.586          0              5.4060908e-05 -3219.435       0              4.8541311      4.2038008      218.00565      366.82521      366.82521     -0.25523097     9.0135618e-06  4.1176754e-10 -1.6828769e-10
      1590   1.59           3.8045277e-11  5.3415794e-05 -3219.435       1.5638407e-12  4.8541311      4.2038008      218.00565      366.82513      366.82513     -0.2552345      9.0134449e-06  4.3577865e-10 -1.1890096e-10
      1600   1.6            4.4977999e-10  4.7913147e-05 -3219.435       1.8488083e-11  4.8541311      4.2038008      218.00565      366.82455      366.82455     -0.2553952      9.0129789e-06  3.9147508e-10 -9.7283877e-11
      1610   2.14291        1.2030266e-09  3.8648356e-05 -3219.435       4.945008e-11   4.8541311      4.2038008      218.00565      366.82351      366.82351     -0.25577479     9.0117269e-06  3.1004531e-10 -7.7536068e-11
      1620   5.5926794      2.8417467e-09  2.3419909e-05 -3219.435       1.1680922e-10  4.8541311      4.2038008      218.00565      366.82147      366.82147     -0.25623033     9.0075057e-06  1.2021562e-10  2.1626922e-11
      1630   14.595513      5.0584266e-09  1.5508511e-05 -3219.435       2.0792524e-10  4.8541311      4.2038008      218.00565      366.82278      366.82278     -0.25516913     9.0061544e-06 -3.6985897e-12 -1.0900973e-11
      1640   16.4           1.298612e-08   1.4202399e-05 -3219.435       5.337909e-10   4.8541311      4.2038008      218.00565      366.82204      366.82204     -0.2548233      9.0060873e-06 -1.4454536e-11  6.4691029e-11
      1650   16.5           2.579911e-08   1.3311182e-05 -3219.435       1.0604653e-09  4.8541311      4.2038008      218.00565      366.82149      366.82149     -0.25351698     9.0058228e-06  4.708264e-11  -2.6854967e-11
      1660   16.6           4.2460005e-08  1.2192603e-05 -3219.435       1.7453069e-09  4.8541311      4.2038008      218.00565      366.82101      366.82101     -0.25214424     9.0058832e-06 -2.6050206e-11  1.9203045e-11
      1670   16.7           6.1595575e-08  1.085493e-05  -3219.435       2.5318692e-09  4.8541311      4.2038008      218.00565      366.82042      366.82042     -0.25042326     9.0056631e-06 -1.7173627e-11  2.5940314e-11
      1680   16.8           8.1829245e-08  9.3097861e-06 -3219.435       3.3635687e-09  4.8541311      4.2038008      218.00565      366.81975      366.81975     -0.2485468      9.0055246e-06  5.6079364e-11  3.1428539e-11
      1690   16.9           9.8489869e-08  1.0642794e-05 -3219.435       4.0483991e-09  4.8541311      4.2038008      218.00565      366.81932      366.81932     -0.24644778     9.0054447e-06  1.0162214e-10 -1.4439463e-11
      1700   17             8.1013048e-08  6.0794117e-06 -3219.435       3.3300191e-09  4.8541311      4.2038008      218.00565      366.81836      366.81836     -0.24467659     9.0054353e-06 -9.0085831e-11  6.8319358e-11
      1710   17.1           6.9746409e-08  9.092868e-06  -3219.435       2.866907e-09   4.8541311      4.2038008      218.00565      366.81799      366.81799     -0.24291371     9.0052464e-06  7.0813943e-11  1.5401808e-10
      1720   17.2           4.88992e-08    3.6249432e-06 -3219.435       2.0099882e-09  4.8541311      4.2038008      218.00565      366.817        366.817       -0.24162569     9.0049798e-06  1.9560721e-10  1.1443251e-10
      1730   17.3           3.1571495e-08  5.6391859e-06 -3219.435       1.2977377e-09  4.8541311      4.2038008      218.00565      366.81642      366.81642     -0.24045203     9.0046312e-06  4.5223551e-11  9.9238015e-11
      1740   17.4           1.4520704e-08  5.8359562e-06 -3219.435       5.9686958e-10  4.8541311      4.2038008      218.00565      366.81647      366.81647     -0.2392353      9.0050855e-06  6.409627e-11  -2.4508931e-10
      1750   17.5           5.5479489e-09  2.6356842e-06 -3219.435       2.2804692e-10  4.8541311      4.2038008      218.00565      366.81594      366.81594     -0.2390171      9.005651e-06  -7.8890725e-11 -6.0018302e-10
      1760   8.8            4.7429679e-13  2.3963396e-06 -3219.435       1.949584e-14   4.8541311      4.2038008      218.00565      366.81607      366.81607     -0.23856654     9.0047715e-06  3.9165498e-11 -1.5074918e-10
      1770   4.425          1.0953964e-14  3.8391799e-07 -3219.435       4.5025971e-16  4.8541311      4.2038008      218.00565      366.81595      366.81595     -0.23865311     9.0045843e-06  2.0932249e-11 -3.2717886e-11
      1780   4.45           8.4728155e-14  2.349344e-07  -3219.435       3.4827276e-15  4.8541311      4.2038008      218.00565      366.81596      366.81596     -0.238646       9.0045214e-06  7.3692714e-11 -2.3506297e-11
      1790   5.956225       1.876211e-13   2.2360376e-07 -3219.435       7.7121139e-15  4.8541311      4.2038008      218.00565      366.81596      366.81596     -0.23864231     9.0044972e-06  4.3663833e-11 -4.56431e-11  
      1800   15.53522       6.4704989e-13  2.2083718e-07 -3219.435       2.6596809e-14  4.8541311      4.2038008      218.00565      366.81595      366.81595     -0.23863753     9.0045409e-06 -4.5143285e-11  6.2356911e-11
      1810   18.1           2.2331425e-12  2.1291403e-07 -3219.435       9.179271e-14   4.8541311      4.2038008      218.00565      366.81595      366.81595     -0.23863029     9.00464e-06    2.80896e-11   -2.0967236e-11
      1820   18.2           4.8058028e-12  2.0186218e-07 -3219.435       1.9754121e-13  4.8541311      4.2038008      218.00565      366.81595      366.81595     -0.23861788     9.0044822e-06  1.3868865e-10 -2.7774715e-11
      1830   18.3           8.2532207e-12  1.8699642e-07 -3219.435       3.3924638e-13  4.8541311      4.2038008      218.00565      366.81594      366.81594     -0.23860116     9.0045554e-06 -5.4659762e-11 -3.0973533e-11
      1840   18.4           1.2344827e-11  1.6848878e-07 -3219.435       5.0743072e-13  4.8541311      4.2038008      218.00565      366.81593      366.81593     -0.23858045     9.0045606e-06 -6.1017408e-11  3.520696e-11 
      1850   18.5           1.6786604e-11  1.4658625e-07 -3219.435       6.9000877e-13  4.8541311      4.2038008      218.00565      366.81592      366.81592     -0.23855618     9.0044759e-06 -8.9606815e-11  4.136968e-11 
      1860   18.6           2.1146108e-11  1.2972997e-07 -3219.435       8.6920496e-13  4.8541311      4.2038008      218.00565      366.81591      366.81591     -0.23852823     9.0042884e-06  1.2277454e-10 -6.6140507e-11
      1870   18.7           2.0355971e-11  1.2711029e-07 -3219.435       8.367266e-13   4.8541311      4.2038008      218.00565      366.8159       366.8159      -0.23850266     9.0042588e-06 -7.4372397e-12 -1.8502649e-10
      1880   18.8           1.535259e-11   7.418398e-08  -3219.435       6.31064e-13    4.8541311      4.2038008      218.00565      366.81589      366.81589     -0.23847581     9.0043405e-06 -2.514469e-10  -3.0718625e-10
      1890   18.9           1.126686e-11   5.2329617e-08 -3219.435       4.6312121e-13  4.8541311      4.2038008      218.00565      366.81588      366.81588     -0.23845367     9.0042015e-06 -1.9436803e-10  9.9063212e-12
      1900   19             7.1348572e-12  7.1409367e-08 -3219.435       2.9327635e-13  4.8541311      4.2038008      218.00565      366.81588      366.81588     -0.23843615     9.0041574e-06 -1.1239838e-10  8.9616824e-12
      1910   19.1           4.1638733e-12  4.4447192e-08 -3219.435       1.7115487e-13  4.8541311      4.2038008      218.00565      366.81587      366.81587     -0.23842012     9.0038054e-06  4.4623472e-11 -1.0051279e-10
      1920   19.2           2.1061093e-12  4.4165905e-08 -3219.435       8.6571047e-14  4.8541311      4.2038008      218.00565      366.81587      366.81587     -0.23841105     9.0039938e-06 -2.2045837e-10 -7.0778792e-11
      1930   19.3           9.7705698e-13  1.3704335e-08 -3219.435       4.016166e-14   4.8541311      4.2038008      218.00565      366.81586      366.81586     -0.23840387     9.0035826e-06  4.5493155e-10  4.650778e-10 
      1940   9.7            1.6428322e-17  2.5394729e-08 -3219.435       6.7528166e-19  4.8541311      4.2038008      218.00565      366.81586      366.81586     -0.23839863     9.0037191e-06  3.0420736e-10  7.3570759e-10
      1944   9.72           2.021639e-16   8.9852141e-09 -3219.435       8.3098916e-18  4.8541311      4.2038008      218.00565      366.81586      366.81586     -0.23839912     9.0037214e-06  1.974269e-10   5.2319128e-10
Loop time of 2.38509 on 2 procs for 358 steps with 319 atoms

102.9% CPU use with 1 MPI tasks x 2 OpenMP threads

Minimization stats:
  Stopping criterion = force tolerance
  Energy initial, next-to-last, final = 
     -3219.43502650585  -3219.43502651105  -3219.43502651105
  Force two-norm initial, final = 5.4060908e-05 8.9852141e-09
  Force max component initial, final = 1.4098653e-05 4.5640545e-09
  Final line search alpha, max atom move = 0 0
  Iterations, force evaluations = 358 362

MPI task timing breakdown:
Section |  min time  |  avg time  |  max time  |%varavg| %total
---------------------------------------------------------------
Pair    | 2.372      | 2.372      | 2.372      |   0.0 | 99.45
Neigh   | 0          | 0          | 0          |   0.0 |  0.00
Comm    | 0.0093599  | 0.0093599  | 0.0093599  |   0.0 |  0.39
Output  | 0.00064828 | 0.00064828 | 0.00064828 |   0.0 |  0.03
Modify  | 0          | 0          | 0          |   0.0 |  0.00
Other   |            | 0.003109   |            |       |  0.13

Nlocal:            319 ave         319 max         319 min
Histogram: 1 0 0 0 0 0 0 0 0 0
Nghost:           6797 ave        6797 max        6797 min
Histogram: 1 0 0 0 0 0 0 0 0 0
Neighs:              0 ave           0 max           0 min
Histogram: 1 0 0 0 0 0 0 0 0 0
FullNghs:        39024 ave       39024 max       39024 min
Histogram: 1 0 0 0 0 0 0 0 0 0

Total # of neighbors = 39024
Ave neighs/atom = 122.33229
Neighbor list builds = 0
Dangerous builds = 0

fix             3 all box/relax z 0.0 vmax 0.001
min_style       cg
minimize        0.0 1.0e-8 1000 2000
Switching to 'neigh_modify every 1 delay 0 check yes' setting during minimization
WARNING: Energy due to 3 extra global DOFs will be included in minimizer energies
 (src/min.cpp:219)
Per MPI rank memory allocation (min/avg/max) = 5.619 | 5.619 | 5.619 Mbytes
   Step          Time           Temp          Fnorm          PotEng         KinEng           Lx             Ly             Lz            Pxx            Pyy            Pzz            Pxy            Pxz            Pyz      
      1944   1.944          2.021639e-16   8.9853993e-09 -3219.435       8.3098916e-18  4.8541311      4.2038008      218.00565      366.81586      366.81586     -0.23839912     9.0036949e-06  2.3271383e-10  6.5429274e-10
      1950   1.95           2.021639e-16   2.4819142e-07 -3219.435       8.3098916e-18  4.8541311      4.2038008      218.00563      366.92654      366.92654      1.042134e-06   9.0037667e-06  4.6062948e-11 -2.3361352e-11
      1960   1.96           2.021639e-16   4.5185677e-08 -3219.435       8.3098916e-18  4.8541311      4.2038008      218.00563      366.92648      366.92648     -9.6413584e-05  9.0038652e-06  2.4311e-11    -8.0870063e-12
      1970   1.97           2.021639e-16   2.7043862e-08 -3219.435       8.3098916e-18  4.8541311      4.2038008      218.00563      366.92651      366.92651     -2.7011648e-07  9.0033839e-06  2.4870793e-11  3.8055912e-11
      1980   1.98           2.021639e-16   2.1610129e-08 -3219.435       8.3098916e-18  4.8541311      4.2038008      218.00563      366.92651      366.92651     -2.8705985e-06  9.0034767e-06  1.8105298e-10  2.1072199e-10
      1990   1.99           2.021639e-16   1.2424686e-08 -3219.435       8.3098916e-18  4.8541311      4.2038008      218.00563      366.92648      366.92648     -6.9000117e-05  9.0036449e-06 -1.0420143e-10 -1.0840987e-11
      2000   2              2.021639e-16   1.1392765e-08 -3219.435       8.3098916e-18  4.8541311      4.2038008      218.00563      366.92651      366.92651     -1.4828144e-06  9.0038882e-06 -1.6601854e-10 -2.6347247e-10
      2004   2.004          2.021639e-16   8.7127803e-09 -3219.435       8.3098916e-18  4.8541311      4.2038008      218.00563      366.92651      366.92651     -2.0271431e-07  9.0035969e-06  2.1775939e-10  8.4138853e-11
Loop time of 0.804155 on 2 procs for 60 steps with 319 atoms

103.3% CPU use with 1 MPI tasks x 2 OpenMP threads

Minimization stats:
  Stopping criterion = force tolerance
  Energy initial, next-to-last, final = 
     -3219.43502651105  -3219.43502651107  -3219.43502651107
  Force two-norm initial, final = 0.00066193548 8.7309418e-09
  Force max component initial, final = 0.00066193548 1.5962505e-09
  Final line search alpha, max atom move = 1 1.5962505e-09
  Iterations, force evaluations = 60 120

MPI task timing breakdown:
Section |  min time  |  avg time  |  max time  |%varavg| %total
---------------------------------------------------------------
Pair    | 0.79388    | 0.79388    | 0.79388    |   0.0 | 98.72
Neigh   | 0          | 0          | 0          |   0.0 |  0.00
Comm    | 0.0025824  | 0.0025824  | 0.0025824  |   0.0 |  0.32
Output  | 9.7534e-05 | 9.7534e-05 | 9.7534e-05 |   0.0 |  0.01
Modify  | 0          | 0          | 0          |   0.0 |  0.00
Other   |            | 0.007594   |            |       |  0.94

Nlocal:            319 ave         319 max         319 min
Histogram: 1 0 0 0 0 0 0 0 0 0
Nghost:           6797 ave        6797 max        6797 min
Histogram: 1 0 0 0 0 0 0 0 0 0
Neighs:              0 ave           0 max           0 min
Histogram: 1 0 0 0 0 0 0 0 0 0
FullNghs:        39024 ave       39024 max       39024 min
Histogram: 1 0 0 0 0 0 0 0 0 0

Total # of neighbors = 39024
Ave neighs/atom = 122.33229
Neighbor list builds = 0
Dangerous builds = 0
unfix           3
min_style       fire
minimize        0.0 1.0e-8 2000 4000
Switching to 'neigh_modify every 1 delay 0 check yes' setting during minimization
  Parameters for fire:
    dmax  delaystep dtgrow dtshrink alpha0 alphashrink tmax tmin   integrator   halfstepback   abcfire  
     0.1     20      1.1     0.5     0.25     0.99      10  0.02 eulerimplicit      yes          no     
Per MPI rank memory allocation (min/avg/max) = 4.494 | 4.494 | 4.494 Mbytes
   Step          Time           Temp          Fnorm          PotEng         KinEng           Lx             Ly             Lz            Pxx            Pyy            Pzz            Pxy            Pxz            Pyz      
      2004   2.004          0              8.7126877e-09 -3219.435       0              4.8541311      4.2038008      218.00563      366.92651      366.92651     -2.0280332e-07  9.0036714e-06  1.9208889e-10  2.047692e-10 
      2005   2.005          1.1258623e-19  8.6981076e-09 -3219.435       4.627826e-21   4.8541311      4.2038008      218.00563      366.92651      366.92651     -2.0300229e-07  9.0037248e-06  2.0656353e-10  2.4585399e-10
Loop time of 0.0196218 on 2 procs for 1 steps with 319 atoms

102.1% CPU use with 1 MPI tasks x 2 OpenMP threads

Minimization stats:
  Stopping criterion = force tolerance
  Energy initial, next-to-last, final = 
     -3219.43502651107  -3219.43502651107  -3219.43502651107
  Force two-norm initial, final = 8.7126877e-09 8.6981076e-09
  Force max component initial, final = 1.5966284e-09 1.5938971e-09
  Final line search alpha, max atom move = 0 0
  Iterations, force evaluations = 1 2

MPI task timing breakdown:
Section |  min time  |  avg time  |  max time  |%varavg| %total
---------------------------------------------------------------
Pair    | 0.019507   | 0.019507   | 0.019507   |   0.0 | 99.41
Neigh   | 0          | 0          | 0          |   0.0 |  0.00
Comm    | 7.6071e-05 | 7.6071e-05 | 7.6071e-05 |   0.0 |  0.39
Output  | 0          | 0          | 0          |   0.0 |  0.00
Modify  | 0          | 0          | 0          |   0.0 |  0.00
Other   |            | 3.922e-05  |            |       |  0.20

Nlocal:            319 ave         319 max         319 min
Histogram: 1 0 0 0 0 0 0 0 0 0
Nghost:           6797 ave        6797 max        6797 min
Histogram: 1 0 0 0 0 0 0 0 0 0
Neighs:              0 ave           0 max           0 min
Histogram: 1 0 0 0 0 0 0 0 0 0
FullNghs:        39024 ave       39024 max       39024 min
Histogram: 1 0 0 0 0 0 0 0 0 0

Total # of neighbors = 39024
Ave neighs/atom = 122.33229
Neighbor list builds = 0
Dangerous builds = 0

fix             3 all box/relax z 0.0 vmax 0.001
min_style       cg
minimize        0.0 1.0e-8 1000 2000
Switching to 'neigh_modify every 1 delay 0 check yes' setting during minimization
WARNING: Energy due to 3 extra global DOFs will be included in minimizer energies
 (src/min.cpp:219)
Per MPI rank memory allocation (min/avg/max) = 5.619 | 5.619 | 5.619 Mbytes
   Step          Time           Temp          Fnorm          PotEng         KinEng           Lx             Ly             Lz            Pxx            Pyy            Pzz            Pxy            Pxz            Pyz      
      2005   2.005          1.1258623e-19  8.6982416e-09 -3219.435       4.627826e-21   4.8541311      4.2038008      218.00563      366.92651      366.92651     -2.02803e-07    9.0036103e-06  2.8245544e-10  3.1637788e-10
      2007   2.007          1.1258623e-19  7.1402412e-09 -3219.435       4.627826e-21   4.8541311      4.2038008      218.00563      366.92651      366.92651     -5.2850196e-08  9.0036356e-06  9.3245482e-11  7.6401717e-11
Loop time of 0.0331994 on 2 procs for 2 steps with 319 atoms

103.0% CPU use with 1 MPI tasks x 2 OpenMP threads

Minimization stats:
  Stopping criterion = force tolerance
  Energy initial, next-to-last, final = 
     -3219.43502651107  -3219.43502651107  -3219.43502651107
  Force two-norm initial, final = 8.7164493e-09 7.1417489e-09
  Force max component initial, final = 1.5936845e-09 2.3125079e-09
  Final line search alpha, max atom move = 1 2.3125079e-09
  Iterations, force evaluations = 2 4

MPI task timing breakdown:
Section |  min time  |  avg time  |  max time  |%varavg| %total
---------------------------------------------------------------
Pair    | 0.032811   | 0.032811   | 0.032811   |   0.0 | 98.83
Neigh   | 0          | 0          | 0          |   0.0 |  0.00
Comm    | 0.00010678 | 0.00010678 | 0.00010678 |   0.0 |  0.32
Output  | 0          | 0          | 0          |   0.0 |  0.00
Modify  | 0          | 0          | 0          |   0.0 |  0.00
Other   |            | 0.0002814  |            |       |  0.85

Nlocal:            319 ave         319 max         319 min
Histogram: 1 0 0 0 0 0 0 0 0 0
Nghost:           6797 ave        6797 max        6797 min
Histogram: 1 0 0 0 0 0 0 0 0 0
Neighs:              0 ave           0 max           0 min
Histogram: 1 0 0 0 0 0 0 0 0 0
FullNghs:        39024 ave       39024 max       39024 min
Histogram: 1 0 0 0 0 0 0 0 0 0

Total # of neighbors = 39024
Ave neighs/atom = 122.33229
Neighbor list builds = 0
Dangerous builds = 0
unfix           3
min_style       fire
minimize        0.0 1.0e-8 2000 4000
Switching to 'neigh_modify every 1 delay 0 check yes' setting during minimization
  Parameters for fire:
    dmax  delaystep dtgrow dtshrink alpha0 alphashrink tmax tmin   integrator   halfstepback   abcfire  
     0.1     20      1.1     0.5     0.25     0.99      10  0.02 eulerimplicit      yes          no     
Per MPI rank memory allocation (min/avg/max) = 4.494 | 4.494 | 4.494 Mbytes
   Step          Time           Temp          Fnorm          PotEng         KinEng           Lx             Ly             Lz            Pxx            Pyy            Pzz            Pxy            Pxz            Pyz      
      2007   2.007          0              7.1404723e-09 -3219.435       0              4.8541311      4.2038008      218.00563      366.92651      366.92651     -5.2779022e-08  9.003568e-06   1.429071e-10   7.3807677e-11
      2008   2.008          6.4353764e-20  7.1302356e-09 -3219.435       2.6452438e-21  4.8541311      4.2038008      218.00563      366.92651      366.92651     -5.245994e-08   9.0035315e-06  1.2747281e-10  5.8798234e-11
Loop time of 0.0197076 on 2 procs for 1 steps with 319 atoms

109.7% CPU use with 1 MPI tasks x 2 OpenMP threads

Minimization stats:
  Stopping criterion = force tolerance
  Energy initial, next-to-last, final = 
     -3219.43502651107  -3219.43502651107  -3219.43502651107
  Force two-norm initial, final = 7.1404723e-09 7.1302356e-09
  Force max component initial, final = 2.312681e-09 2.3081541e-09
  Final line search alpha, max atom move = 0 0
  Iterations, force evaluations = 1 2

MPI task timing breakdown:
Section |  min time  |  avg time  |  max time  |%varavg| %total
---------------------------------------------------------------
Pair    | 0.019591   | 0.019591   | 0.019591   |   0.0 | 99.41
Neigh   | 0          | 0          | 0          |   0.0 |  0.00
Comm    | 7.9667e-05 | 7.9667e-05 | 7.9667e-05 |   0.0 |  0.40
Output  | 0          | 0          | 0          |   0.0 |  0.00
Modify  | 0          | 0          | 0          |   0.0 |  0.00
Other   |            | 3.673e-05  |            |       |  0.19

Nlocal:            319 ave         319 max         319 min
Histogram: 1 0 0 0 0 0 0 0 0 0
Nghost:           6797 ave        6797 max        6797 min
Histogram: 1 0 0 0 0 0 0 0 0 0
Neighs:              0 ave           0 max           0 min
Histogram: 1 0 0 0 0 0 0 0 0 0
FullNghs:        39024 ave       39024 max       39024 min
Histogram: 1 0 0 0 0 0 0 0 0 0

Total # of neighbors = 39024
Ave neighs/atom = 122.33229
Neighbor list builds = 0
Dangerous builds = 0

fix             3 all box/relax z 0.0 vmax 0.001
min_style       cg
minimize        0.0 1.0e-8 1000 2000
Switching to 'neigh_modify every 1 delay 0 check yes' setting during minimization
WARNING: Energy due to 3 extra global DOFs will be included in minimizer energies
 (src/min.cpp:219)
Per MPI rank memory allocation (min/avg/max) = 5.619 | 5.619 | 5.619 Mbytes
   Step          Time           Temp          Fnorm          PotEng         KinEng           Lx             Ly             Lz            Pxx            Pyy            Pzz            Pxy            Pxz            Pyz      
      2008   2.008          6.4353764e-20  7.1301087e-09 -3219.435       2.6452438e-21  4.8541311      4.2038008      218.00563      366.92651      366.92651     -5.2249378e-08  9.003597e-06   1.1563719e-10  5.1166059e-11
      2010   2.01           6.4353764e-20  6.2903547e-09 -3219.435       2.6452438e-21  4.8541311      4.2038008      218.00563      366.92651      366.92651     -1.9515608e-07  9.0034844e-06 -7.3572764e-12  5.1490939e-11
Loop time of 0.0327959 on 2 procs for 2 steps with 319 atoms

107.8% CPU use with 1 MPI tasks x 2 OpenMP threads

Minimization stats:
  Stopping criterion = force tolerance
  Energy initial, next-to-last, final = 
     -3219.43502651107  -3219.43502651107  -3219.43502651107
  Force two-norm initial, final = 7.1315844e-09 6.3136505e-09
  Force max component initial, final = 2.3080444e-09 2.659094e-09
  Final line search alpha, max atom move = 1 2.659094e-09
  Iterations, force evaluations = 2 4

MPI task timing breakdown:
Section |  min time  |  avg time  |  max time  |%varavg| %total
---------------------------------------------------------------
Pair    | 0.032415   | 0.032415   | 0.032415   |   0.0 | 98.84
Neigh   | 0          | 0          | 0          |   0.0 |  0.00
Comm    | 0.00010655 | 0.00010655 | 0.00010655 |   0.0 |  0.32
Output  | 0          | 0          | 0          |   0.0 |  0.00
Modify  | 0          | 0          | 0          |   0.0 |  0.00
Other   |            | 0.0002747  |            |       |  0.84

Nlocal:            319 ave         319 max         319 min
Histogram: 1 0 0 0 0 0 0 0 0 0
Nghost:           6797 ave        6797 max        6797 min
Histogram: 1 0 0 0 0 0 0 0 0 0
Neighs:              0 ave           0 max           0 min
Histogram: 1 0 0 0 0 0 0 0 0 0
FullNghs:        39024 ave       39024 max       39024 min
Histogram: 1 0 0 0 0 0 0 0 0 0

Total # of neighbors = 39024
Ave neighs/atom = 122.33229
Neighbor list builds = 0
Dangerous builds = 0
unfix           3
min_style       fire
minimize        0.0 1.0e-8 2000 4000
Switching to 'neigh_modify every 1 delay 0 check yes' setting during minimization
  Parameters for fire:
    dmax  delaystep dtgrow dtshrink alpha0 alphashrink tmax tmin   integrator   halfstepback   abcfire  
     0.1     20      1.1     0.5     0.25     0.99      10  0.02 eulerimplicit      yes          no     
Per MPI rank memory allocation (min/avg/max) = 4.494 | 4.494 | 4.494 Mbytes
   Step          Time           Temp          Fnorm          PotEng         KinEng           Lx             Ly             Lz            Pxx            Pyy            Pzz            Pxy            Pxz            Pyz      
      2010   2.01           0              6.2903255e-09 -3219.435       0              4.8541311      4.2038008      218.00563      366.92651      366.92651     -1.9531266e-07  9.0036371e-06 -4.654277e-11   6.1227334e-11
      2011   2.011          4.1450014e-20  6.2832061e-09 -3219.435       1.7037915e-21  4.8541311      4.2038008      218.00563      366.92651      366.92651     -1.9532369e-07  9.0035578e-06 -3.846576e-11   3.3752505e-11
Loop time of 0.0187536 on 2 procs for 1 steps with 319 atoms

101.8% CPU use with 1 MPI tasks x 2 OpenMP threads

Minimization stats:
  Stopping criterion = force tolerance
  Energy initial, next-to-last, final = 
     -3219.43502651107  -3219.43502651107  -3219.43502651107
  Force two-norm initial, final = 6.2903255e-09 6.2832061e-09
  Force max component initial, final = 2.6592187e-09 2.6539388e-09
  Final line search alpha, max atom move = 0 0
  Iterations, force evaluations = 1 2

MPI task timing breakdown:
Section |  min time  |  avg time  |  max time  |%varavg| %total
---------------------------------------------------------------
Pair    | 0.018653   | 0.018653   | 0.018653   |   0.0 | 99.46
Neigh   | 0          | 0          | 0          |   0.0 |  0.00
Comm    | 6.6571e-05 | 6.6571e-05 | 6.6571e-05 |   0.0 |  0.35
Output  | 0          | 0          | 0          |   0.0 |  0.00
Modify  | 0          | 0          | 0          |   0.0 |  0.00
Other   |            | 3.397e-05  |            |       |  0.18

Nlocal:            319 ave         319 max         319 min
Histogram: 1 0 0 0 0 0 0 0 0 0
Nghost:           6797 ave        6797 max        6797 min
Histogram: 1 0 0 0 0 0 0 0 0 0
Neighs:              0 ave           0 max           0 min
Histogram: 1 0 0 0 0 0 0 0 0 0
FullNghs:        39024 ave       39024 max       39024 min
Histogram: 1 0 0 0 0 0 0 0 0 0

Total # of neighbors = 39024
Ave neighs/atom = 122.33229
Neighbor list builds = 0
Dangerous builds = 0

fix             3 all box/relax z 0.0 vmax 0.001
min_style       cg
minimize        0.0 1.0e-8 1000 2000
Switching to 'neigh_modify every 1 delay 0 check yes' setting during minimization
WARNING: Energy due to 3 extra global DOFs will be included in minimizer energies
 (src/min.cpp:219)
Per MPI rank memory allocation (min/avg/max) = 5.619 | 5.619 | 5.619 Mbytes
   Step          Time           Temp          Fnorm          PotEng         KinEng           Lx             Ly             Lz            Pxx            Pyy            Pzz            Pxy            Pxz            Pyz      
      2011   2.011          4.1450014e-20  6.2830698e-09 -3219.435       1.7037915e-21  4.8541311      4.2038008      218.00563      366.92651      366.92651     -1.9554153e-07  9.00365e-06   -3.6866353e-11  5.3630147e-11
      2013   2.013          4.1450014e-20  5.722889e-09  -3219.435       1.7037915e-21  4.8541311      4.2038008      218.00563      366.92651      366.92651     -5.094626e-08   9.0037609e-06 -1.2891228e-10  2.2651615e-11
Loop time of 0.0407761 on 2 procs for 2 steps with 319 atoms

97.3% CPU use with 1 MPI tasks x 2 OpenMP threads

Minimization stats:
  Stopping criterion = force tolerance
  Energy initial, next-to-last, final = 
     -3219.43502651107  -3219.43502651107  -3219.43502651107
  Force two-norm initial, final = 6.3064846e-09 5.724637e-09
  Force max component initial, final = 2.6536321e-09 2.4365054e-09
  Final line search alpha, max atom move = 1 2.4365054e-09
  Iterations, force evaluations = 2 4

MPI task timing breakdown:
Section |  min time  |  avg time  |  max time  |%varavg| %total
---------------------------------------------------------------
Pair    | 0.039699   | 0.039699   | 0.039699   |   0.0 | 97.36
Neigh   | 0          | 0          | 0          |   0.0 |  0.00
Comm    | 0.00038923 | 0.00038923 | 0.00038923 |   0.0 |  0.95
Output  | 0          | 0          | 0          |   0.0 |  0.00
Modify  | 0          | 0          | 0          |   0.0 |  0.00
Other   |            | 0.0006878  |            |       |  1.69

Nlocal:            319 ave         319 max         319 min
Histogram: 1 0 0 0 0 0 0 0 0 0
Nghost:           6797 ave        6797 max        6797 min
Histogram: 1 0 0 0 0 0 0 0 0 0
Neighs:              0 ave           0 max           0 min
Histogram: 1 0 0 0 0 0 0 0 0 0
FullNghs:        39024 ave       39024 max       39024 min
Histogram: 1 0 0 0 0 0 0 0 0 0

Total # of neighbors = 39024
Ave neighs/atom = 122.33229
Neighbor list builds = 0
Dangerous builds = 0
unfix           3
min_style       fire
minimize        0.0 1.0e-8 2000 4000
Switching to 'neigh_modify every 1 delay 0 check yes' setting during minimization
  Parameters for fire:
    dmax  delaystep dtgrow dtshrink alpha0 alphashrink tmax tmin   integrator   halfstepback   abcfire  
     0.1     20      1.1     0.5     0.25     0.99      10  0.02 eulerimplicit      yes          no     
Per MPI rank memory allocation (min/avg/max) = 4.494 | 4.494 | 4.494 Mbytes
   Step          Time           Temp          Fnorm          PotEng         KinEng           Lx             Ly             Lz            Pxx            Pyy            Pzz            Pxy            Pxz            Pyz      
      2013   2.013          0              5.7230371e-09 -3219.435       0              4.8541311      4.2038008      218.00563      366.92651      366.92651     -5.0912833e-08  9.0037493e-06 -1.1691672e-10  1.3974827e-11
      2014   2.014          3.3915246e-20  5.7168496e-09 -3219.435       1.3940769e-21  4.8541311      4.2038008      218.00563      366.92651      366.92651     -5.0881404e-08  9.0036965e-06 -1.050811e-10   4.2609227e-11
Loop time of 0.0200925 on 2 procs for 1 steps with 319 atoms

100.7% CPU use with 1 MPI tasks x 2 OpenMP threads

Minimization stats:
  Stopping criterion = force tolerance
  Energy initial, next-to-last, final = 
     -3219.43502651107  -3219.43502651107  -3219.43502651107
  Force two-norm initial, final = 5.7230371e-09 5.7168496e-09
  Force max component initial, final = 2.4364709e-09 2.4314636e-09
  Final line search alpha, max atom move = 0 0
  Iterations, force evaluations = 1 2

MPI task timing breakdown:
Section |  min time  |  avg time  |  max time  |%varavg| %total
---------------------------------------------------------------
Pair    | 0.019924   | 0.019924   | 0.019924   |   0.0 | 99.16
Neigh   | 0          | 0          | 0          |   0.0 |  0.00
Comm    | 0.00012365 | 0.00012365 | 0.00012365 |   0.0 |  0.62
Output  | 0          | 0          | 0          |   0.0 |  0.00
Modify  | 0          | 0          | 0          |   0.0 |  0.00
Other   |            | 4.493e-05  |            |       |  0.22

Nlocal:            319 ave         319 max         319 min
Histogram: 1 0 0 0 0 0 0 0 0 0
Nghost:           6797 ave        6797 max        6797 min
Histogram: 1 0 0 0 0 0 0 0 0 0
Neighs:              0 ave           0 max           0 min
Histogram: 1 0 0 0 0 0 0 0 0 0
FullNghs:        39024 ave       39024 max       39024 min
Histogram: 1 0 0 0 0 0 0 0 0 0

Total # of neighbors = 39024
Ave neighs/atom = 122.33229
Neighbor list builds = 0
Dangerous builds = 0

fix             3 all box/relax z 0.0 vmax 0.001
min_style       cg
minimize        0.0 1.0e-8 1000 2000
Switching to 'neigh_modify every 1 delay 0 check yes' setting during minimization
WARNING: Energy due to 3 extra global DOFs will be included in minimizer energies
 (src/min.cpp:219)
Per MPI rank memory allocation (min/avg/max) = 5.619 | 5.619 | 5.619 Mbytes
   Step          Time           Temp          Fnorm          PotEng         KinEng           Lx             Ly             Lz            Pxx            Pyy            Pzz            Pxy            Pxz            Pyz      
      2014   2.014          3.3915246e-20  5.7167403e-09 -3219.435       1.3940769e-21  4.8541311      4.2038008      218.00563      366.92651      366.92651     -5.0927147e-08  9.0037197e-06 -5.1420965e-11  4.1084791e-12
      2016   2.016          3.3915246e-20  5.4402999e-09 -3219.435       1.3940769e-21  4.8541311      4.2038008      218.00563      366.92651      366.92651     -1.7512941e-07  9.0037836e-06 -3.5906708e-11 -6.188709e-11 
Loop time of 0.0332084 on 2 procs for 2 steps with 319 atoms

101.4% CPU use with 1 MPI tasks x 2 OpenMP threads

Minimization stats:
  Stopping criterion = force tolerance
  Energy initial, next-to-last, final = 
     -3219.43502651107  -3219.43502651107  -3219.43502651107
  Force two-norm initial, final = 5.7184888e-09 5.4619881e-09
  Force max component initial, final = 2.4311772e-09 2.3702236e-09
  Final line search alpha, max atom move = 1 2.3702236e-09
  Iterations, force evaluations = 2 4

MPI task timing breakdown:
Section |  min time  |  avg time  |  max time  |%varavg| %total
---------------------------------------------------------------
Pair    | 0.032851   | 0.032851   | 0.032851   |   0.0 | 98.92
Neigh   | 0          | 0          | 0          |   0.0 |  0.00
Comm    | 9.7399e-05 | 9.7399e-05 | 9.7399e-05 |   0.0 |  0.29
Output  | 0          | 0          | 0          |   0.0 |  0.00
Modify  | 0          | 0          | 0          |   0.0 |  0.00
Other   |            | 0.00026    |            |       |  0.78

Nlocal:            319 ave         319 max         319 min
Histogram: 1 0 0 0 0 0 0 0 0 0
Nghost:           6797 ave        6797 max        6797 min
Histogram: 1 0 0 0 0 0 0 0 0 0
Neighs:              0 ave           0 max           0 min
Histogram: 1 0 0 0 0 0 0 0 0 0
FullNghs:        39024 ave       39024 max       39024 min
Histogram: 1 0 0 0 0 0 0 0 0 0

Total # of neighbors = 39024
Ave neighs/atom = 122.33229
Neighbor list builds = 0
Dangerous builds = 0
unfix           3
min_style       fire
minimize        0.0 1.0e-8 2000 4000
Switching to 'neigh_modify every 1 delay 0 check yes' setting during minimization
  Parameters for fire:
    dmax  delaystep dtgrow dtshrink alpha0 alphashrink tmax tmin   integrator   halfstepback   abcfire  
     0.1     20      1.1     0.5     0.25     0.99      10  0.02 eulerimplicit      yes          no     
Per MPI rank memory allocation (min/avg/max) = 4.494 | 4.494 | 4.494 Mbytes
   Step          Time           Temp          Fnorm          PotEng         KinEng           Lx             Ly             Lz            Pxx            Pyy            Pzz            Pxy            Pxz            Pyz      
      2016   2.016          0              5.4404478e-09 -3219.435       0              4.8541311      4.2038008      218.00563      366.92651      366.92651     -1.7491573e-07  9.0037736e-06  2.7829698e-11 -6.3971319e-11
      2017   2.017          3.0594143e-20  5.4345056e-09 -3219.435       1.2575639e-21  4.8541311      4.2038008      218.00563      366.92651      366.92651     -1.7476658e-07  9.0037732e-06  3.3347655e-11 -7.0583871e-11
Loop time of 0.0200142 on 2 procs for 1 steps with 319 atoms

98.2% CPU use with 1 MPI tasks x 2 OpenMP threads

Minimization stats:
  Stopping criterion = force tolerance
  Energy initial, next-to-last, final = 
     -3219.43502651107  -3219.43502651107  -3219.43502651107
  Force two-norm initial, final = 5.4404478e-09 5.4345056e-09
  Force max component initial, final = 2.3701717e-09 2.3653247e-09
  Final line search alpha, max atom move = 0 0
  Iterations, force evaluations = 1 2

MPI task timing breakdown:
Section |  min time  |  avg time  |  max time  |%varavg| %total
---------------------------------------------------------------
Pair    | 0.019923   | 0.019923   | 0.019923   |   0.0 | 99.54
Neigh   | 0          | 0          | 0          |   0.0 |  0.00
Comm    | 5.9474e-05 | 5.9474e-05 | 5.9474e-05 |   0.0 |  0.30
Output  | 0          | 0          | 0          |   0.0 |  0.00
Modify  | 0          | 0          | 0          |   0.0 |  0.00
Other   |            | 3.167e-05  |            |       |  0.16

Nlocal:            319 ave         319 max         319 min
Histogram: 1 0 0 0 0 0 0 0 0 0
Nghost:           6797 ave        6797 max        6797 min
Histogram: 1 0 0 0 0 0 0 0 0 0
Neighs:              0 ave           0 max           0 min
Histogram: 1 0 0 0 0 0 0 0 0 0
FullNghs:        39024 ave       39024 max       39024 min
Histogram: 1 0 0 0 0 0 0 0 0 0

Total # of neighbors = 39024
Ave neighs/atom = 122.33229
Neighbor list builds = 0
Dangerous builds = 0


write_data      fire_cg_${name}.data
write_data      fire_cg_lmps.data
System init for write_data ...

write_data      bi_minimised.data
System init for write_data ...

print """- step: $(step)
  atoms: $(atoms)
  temp: $(temp)
  press: $(press)
  pe: $(pe)
  ke: $(ke)
  etotal: $(etotal)
  vol: $(vol)
  avecx: $(avecx)
  avecy: $(avecy)
  avecz: $(avecz)
  bvecx: $(bvecx)
  bvecy: $(bvecy)
  bvecz: $(bvecz)
  cvecx: $(cvecx)
  cvecy: $(cvecy)
  cvecz: $(cvecz)
  lx: $(lx)
  ly: $(ly)
  lz: $(lz)
  cella: $(cella)
  cellb: $(cellb)
  cellc: $(cellc)
  cellalpha: $(cellalpha)
  cellbeta: $(cellbeta)
  cellgamma: $(cellgamma)
  pxx: $(pxx)
  pyy: $(pyy)
  pzz: $(pzz)
  pxy: $(pxy)
  pyz: $(pyz)
  pxz: $(pxz)
  xlo: $(xlo)
  xhi: $(xhi)
  ylo: $(ylo)
  yhi: $(yhi)
  zlo: $(zlo)
  zhi: $(zhi)
  xy: $(xy)
  xz: $(xz)
  yz: $(yz)
""" file bi_minimised.data.yaml screen yes universe no
- step: 2017
  atoms: 319
  temp: 3.0594143091170946539e-20
  press: 244.61767445738229299
  pe: -3219.4350265110729197
  ke: 1.2575638723327305527e-21
  etotal: -3219.4350265110729197
  vol: 4448.5792991527168851
  avecx: 4.8541310641848607332
  avecy: 0
  avecz: 0
  bvecx: -2.4270655321457348386
  bvecy: 4.2038008148832508581
  bvecz: 0
  cvecx: 0
  cvecy: 0
  cvecz: 218.00562939462662371
  lx: 4.8541310641848607332
  ly: 4.2038008148832508581
  lz: 218.00562939462662371
  cella: 4.8541310641848607332
  cellb: 4.8541310642114865459
  cellc: 218.00562939462662371
  cellalpha: 90
  cellbeta: 90
  cellgamma: 120.00000000054507154
  pxx: 366.92651176836216109
  pyy: 366.92651177855117339
  pzz: -1.7476658357193691053e-07
  pxy: 9.0037731945512601019e-06
  pyz: -7.0583870724266446938e-11
  pxz: 3.3347655110629406678e-11
  xlo: 0.00049104455757122676164
  xhi: 4.8546221087424319407
  ylo: 0.00042525705837334908024
  yhi: 4.2042260719416244541
  zlo: -6.8440417703636597935
  zhi: 211.16158762426297812
  xy: -2.4270655321457348386
  xz: 0
  yz: 0

[GRACE:debug, proc #0]: Data preparation timer: 1.46927e+06 mcs, graph execution time: 2.39285e+07 mcs, data preparation time fraction: 5.79 %
Total wall time: 0:00:40
