LAMMPS (29 Aug 2024 - Development - 5b9cae1)
  using 2 OpenMP thread(s) per MPI task
Reading data file ...
  triclinic box = (0 0 0) to (4.9389278 4.2772369 27.097144) with tilt (-2.4694639 0 0)
WARNING: Triclinic box skew is large. LAMMPS will run inefficiently. (src/domain.cpp:221)
  1 by 1 by 1 MPI processor grid
  reading atoms ...
  39 atoms
  read_data CPU = 0.022 seconds
Changing box ...
WARNING: Triclinic box skew is large. LAMMPS will run inefficiently. (src/domain.cpp:221)
  triclinic box = (0 0 0) to (4.9389278 4.2772369 27.097144) with tilt (-2.4694639 0 0)
Replication is creating a 5x5x5 = 125 times larger system...
  triclinic box = (0 0 0) to (24.694639 21.386185 135.48572) with tilt (-12.347319 0 0)
WARNING: Triclinic box skew is large. LAMMPS will run inefficiently. (src/domain.cpp:221)
  1 by 1 by 1 MPI processor grid
  4875 atoms
  replicate CPU = 0.000 seconds
[GRACE] TF version: 2.16.2
[GRACE] Neighbour padding is ON, padding fraction: 0.01, max padding fraction before reduction: 0.2, max number of reduction(s): 10
[GRACE] Loading /home/wz300646/GRACE/STATIC_FILES/POTENTIALS/GRACE-2L-OMAT
[GRACE] Model loaded
[GRACE] Mapping LAMMPS atom type #1(Ta) -> ACE species type #73
[GRACE] Mapping LAMMPS atom type #2(Fe) -> ACE species type #24

CITE-CITE-CITE-CITE-CITE-CITE-CITE-CITE-CITE-CITE-CITE-CITE-CITE

Your simulation uses code contributions which should be cited:
- Type Label Framework: https://doi.org/10.1021/acs.jpcb.3c08419
The log file lists these citations in BibTeX format.

CITE-CITE-CITE-CITE-CITE-CITE-CITE-CITE-CITE-CITE-CITE-CITE-CITE

Switching to 'neigh_modify every 1 delay 0 check yes' setting during minimization
Neighbor list info ...
  update: every = 1 steps, delay = 0 steps, check = yes
  max neighbors/atom: 2000, page size: 100000
  master list distance cutoff = 7.4
  ghost atom cutoff = 7.4
  binsize = 3.7, bins = 11 6 37
  1 neighbor lists, perpetual/occasional/extra = 1 0 0
  (1) pair grace, perpetual
      attributes: full, newton on
      pair build: full/bin/atomonly
      stencil: full/bin/3d
      bin: standard
Setting up fire style minimization ...
  Unit style    : metal
  Current step  : 0
  Parameters for fire:
    dmax  delaystep dtgrow dtshrink alpha0 alphashrink tmax tmin   integrator   halfstepback   abcfire  
     0.1     20      1.1     0.5     0.25     0.99      10  0.02 eulerimplicit      yes          no     
[GRACE] Atoms padding: new num. of atoms = 4924 (incl. 0.995% fake atoms)
[GRACE] Neighbours padding: extending new num. of neighbours = 313605 (incl. 0.990% fake neighbours)
Per MPI rank memory allocation (min/avg/max) = 6.778 | 6.778 | 6.778 Mbytes
   Step          Time           Temp          Fnorm          PotEng         KinEng           Lx             Ly             Lz            Pxx            Pyy            Pzz            Pxy            Pxz            Pyz      
         0   0              0              6.1953206     -50349.836      0              24.694639      21.386185      135.48572      901.8979       901.8979      -35128.203      1.1447435e-07  9.6796175e-08 -1.6496768e-07
        10   0.01           0.28452961     5.874732      -50350.054      0.17925762     24.694639      21.386185      135.48572      897.30572      897.30572     -35151.269      1.0987653e-07  9.0993584e-08 -1.6190796e-07
        20   0.02           1.083405       5.0631466     -50350.57       0.68256025     24.694639      21.386185      135.48572      893.56889      893.56889     -35218.53       9.8631023e-08  7.5961096e-08 -1.5667038e-07
        30   0.070738431    2.724457       3.0943155     -50351.58       1.7164459      24.694639      21.386185      135.48572      903.23914      903.23914     -35461.578      6.9492016e-08  3.2732316e-08 -1.3814311e-07
        40   0.10108941     0.00089094056  0.65247649    -50352.297      0.00056130498  24.694639      21.386185      135.48572      928.0968       928.09681     -36394.809      9.493846e-09  -4.935061e-08  -5.6839607e-08
        50   0.12636176     0.023646877    0.38240534    -50352.313      0.014897863    24.694639      21.386185      135.48572      915.04357      915.04357     -36356.522      1.0726156e-08 -3.8505886e-08 -5.786973e-08 
        60   0.075817054    1.2456727e-07  0.026758245   -50352.321      7.847912e-08   24.694639      21.386185      135.48572      888.65548      888.65548     -36314.095      7.3823538e-09 -1.0772178e-08 -6.5484217e-08
        70   0.08845323     1.0580177e-05  0.025123967   -50352.321      6.6656593e-06  24.694639      21.386185      135.48572      888.59513      888.59513     -36314.533      7.1181777e-09 -1.0483185e-08 -6.5488335e-08
        80   0.10108941     3.7204875e-05  0.021613469   -50352.321      2.343959e-05   24.694639      21.386185      135.48572      888.39207      888.39207     -36315.489      6.4613291e-09 -9.5587708e-09 -6.6062611e-08
        90   0.29497487     9.8268873e-05  0.01318591    -50352.321      6.1910761e-05  24.694639      21.386185      135.48572      887.65873      887.65873     -36317.808      4.4201165e-09 -6.6603331e-09 -6.6896692e-08
       100   0.85009871     8.5896194e-05  0.0039123157  -50352.321      5.41158e-05    24.694639      21.386185      135.48572      885.68538      885.68538     -36320.571     -1.1784437e-09  1.7574272e-09 -6.7591151e-08
       110   0.55           3.482772e-08   0.00079782092 -50352.321      2.1941949e-08  24.694639      21.386185      135.48572      886.30525      886.30525     -36320.033     -4.0591464e-10  6.0714742e-10 -6.7550429e-08
       120   0.6            1.0634986e-07  0.00030589414 -50352.321      6.7001895e-08  24.694639      21.386185      135.48572      886.22006      886.22007     -36320.049     -8.1255502e-11  2.4771113e-10 -6.7521503e-08
       130   1.1515147      1.033056e-07   3.933289e-05  -50352.321      6.5083971e-08  24.694639      21.386185      135.48572      886.19208      886.19208     -36320.086      8.2135621e-11 -6.9242258e-11 -6.7499453e-08
       140   0.68205099     4.520717e-11   1.4309147e-05 -50352.321      2.8481148e-11  24.694639      21.386185      135.48572      886.19468      886.19468     -36320.083      6.3292092e-12 -2.3911732e-11 -6.7503446e-08
       150   0.73076891     1.0031649e-10  6.6358546e-06 -50352.321      6.3200786e-11  24.694639      21.386185      135.48572      886.19321      886.19321     -36320.085      3.8532108e-11 -1.4567055e-11 -6.7501255e-08
       160   0.75949967     6.7722303e-16  5.1376991e-07 -50352.321      4.2665996e-16  24.694639      21.386185      135.48572      886.19325      886.19326     -36320.085     -2.5267119e-11  4.7237878e-11 -6.7497585e-08
       170   0.8069684      3.492325e-14   3.3537241e-07 -50352.321      2.2002135e-14  24.694639      21.386185      135.48572      886.19326      886.19326     -36320.085      1.9380407e-11 -1.096302e-11  -6.7518413e-08
       180   0.85443713     7.5874576e-14  1.9423243e-07 -50352.321      4.7802041e-14  24.694639      21.386185      135.48572      886.19326      886.19326     -36320.085      6.198946e-11   4.4075324e-12 -6.7492704e-08
       190   0.95           4.3541819e-18  1.9133805e-08 -50352.321      2.7431953e-18  24.694639      21.386185      135.48572      886.19326      886.19326     -36320.085      3.9874517e-12  1.41649e-11   -6.7486826e-08
       193   0.965          1.6416562e-17  7.0196007e-09 -50352.321      1.0342663e-17  24.694639      21.386185      135.48572      886.19326      886.19326     -36320.085     -8.3676822e-12 -6.1551934e-12 -6.7541338e-08
Loop time of 17.1897 on 2 procs for 193 steps with 4875 atoms

98.4% CPU use with 1 MPI tasks x 2 OpenMP threads

Minimization stats:
  Stopping criterion = force tolerance
  Energy initial, next-to-last, final = 
     -50349.8362606406  -50352.3210018055   -50352.321001806
  Force two-norm initial, final = 6.1953206 7.0196007e-09
  Force max component initial, final = 0.11102636 1.7942021e-10
  Final line search alpha, max atom move = 0 0
  Iterations, force evaluations = 193 200

MPI task timing breakdown:
Section |  min time  |  avg time  |  max time  |%varavg| %total
---------------------------------------------------------------
Pair    | 17.149     | 17.149     | 17.149     |   0.0 | 99.76
Neigh   | 0          | 0          | 0          |   0.0 |  0.00
Comm    | 0.018208   | 0.018208   | 0.018208   |   0.0 |  0.11
Output  | 0.0015338  | 0.0015338  | 0.0015338  |   0.0 |  0.01
Modify  | 0          | 0          | 0          |   0.0 |  0.00
Other   |            | 0.0207     |            |       |  0.12

Nlocal:           4875 ave        4875 max        4875 min
Histogram: 1 0 0 0 0 0 0 0 0 0
Nghost:          11117 ave       11117 max       11117 min
Histogram: 1 0 0 0 0 0 0 0 0 0
Neighs:              0 ave           0 max           0 min
Histogram: 1 0 0 0 0 0 0 0 0 0
FullNghs:       549000 ave      549000 max      549000 min
Histogram: 1 0 0 0 0 0 0 0 0 0

Total # of neighbors = 549000
Ave neighs/atom = 112.61538
Neighbor list builds = 0
Dangerous builds = 0
Switching to 'neigh_modify every 1 delay 0 check yes' setting during minimization
Setting up cg style minimization ...
  Unit style    : metal
  Current step  : 193
WARNING: Energy due to 3 extra global DOFs will be included in minimizer energies
 (src/min.cpp:219)
Per MPI rank memory allocation (min/avg/max) = 7.903 | 7.903 | 7.903 Mbytes
   Step          Time           Temp          Fnorm          PotEng         KinEng           Lx             Ly             Lz            Pxx            Pyy            Pzz            Pxy            Pxz            Pyz      
       193   0.193          1.6416562e-17  7.0197298e-09 -50352.321      1.0342663e-17  24.694639      21.386185      135.48572      886.19326      886.19326     -36320.085     -7.3484458e-12 -1.2273098e-11 -6.7522684e-08
       200   0.2            1.6416562e-17  1.4113177     -50361.763      1.0342663e-17  24.719511      21.407724      134.53732      6415.7903      6415.7903     -21865.655      1.5842062e-07  1.0986275e-08 -4.6641703e-08
       210   0.21           1.6416562e-17  3.4589573     -50370.017      1.0342663e-17  24.814883      21.490319      133.18246      3366.3796      3366.3796     -7321.8302      4.0929606e-07  2.6604138e-08 -1.5563525e-08
       220   0.22           1.6416562e-17  1.841217      -50371.831      1.0342663e-17  24.882316      21.548718      132.35615     -89.130712     -89.130729     -14.291336      5.3999206e-06  3.3452833e-07  5.2012172e-07
       230   0.23           1.6416562e-17  2.1365346     -50371.835      1.0342663e-17  24.883834      21.550032      132.33494     -118.00305     -118.00308      61.012534      9.1594668e-06  5.6385256e-07  9.1806647e-07
       240   0.24           1.6416562e-17  2.4089942     -50371.84       1.0342663e-17  24.88408       21.550246      132.32901     -61.781818     -61.781802     -14.957516     -4.0011284e-06 -2.4122549e-07 -4.7633249e-07
       250   0.25           1.6416562e-17  2.5673699     -50371.844      1.0342663e-17  24.884859      21.55092       132.31761     -36.509267     -36.509276     -11.093293      3.0975576e-06  1.9183594e-07  2.7363737e-07
       260   0.26           1.6416562e-17  2.6414226     -50371.848      1.0342663e-17  24.885075      21.551107      132.31596     -2.0884499     -2.0884626     -121.10014      4.2173809e-06  2.587527e-07   3.9012595e-07
       270   0.27           1.6416562e-17  2.6124366     -50371.852      1.0342663e-17  24.886154      21.552041      132.30818     -54.262881     -54.262895     -180.34984      4.440548e-06   2.7048402e-07  4.1149939e-07
       280   0.28           1.6416562e-17  2.487382      -50371.856      1.0342663e-17  24.887315      21.553047      132.2911      -19.410643     -19.410648     -29.092485      1.8870917e-06  1.1577477e-07  1.4415506e-07
       290   0.29           1.6416562e-17  2.3599726     -50371.858      1.0342663e-17  24.888124      21.553748      132.285       -55.935651     -55.935639     -18.198136     -2.9826681e-06 -1.751969e-07  -3.5947421e-07
       300   0.3            1.6416562e-17  2.1801138     -50371.861      1.0342663e-17  24.889272      21.554742      132.27528     -110.77659     -110.77663      49.97562       1.4248252e-05  8.4589081e-07  1.40984e-06  
       310   0.31           1.6416562e-17  2.0524675     -50371.864      1.0342663e-17  24.889098      21.554591      132.28082     -102.21711     -102.21708     -11.581021     -6.8003916e-06 -4.0045649e-07 -7.4850365e-07
       320   0.32           1.6416562e-17  1.94699       -50371.866      1.0342663e-17  24.888419      21.554003      132.28693     -14.68402      -14.684022     -9.9356632      1.2679616e-06  7.514056e-08   7.5714001e-08
       330   0.33           1.6416562e-17  1.8769159     -50371.868      1.0342663e-17  24.888268      21.553873      132.2926      -30.626886     -30.626891     -57.391658      2.0353445e-06  1.1944029e-07  1.5285123e-07
       340   0.34           1.6416562e-17  1.8232253     -50371.871      1.0342663e-17  24.887665      21.55335       132.30117     -1.96913       -1.969109      -100.21125     -5.5325454e-06 -3.2559439e-07 -6.1760415e-07
       350   0.35           1.6416562e-17  1.783007      -50371.874      1.0342663e-17  24.887629      21.553319      132.30721     -60.563263     -60.563291     -152.1165       8.4969517e-06  4.9600291e-07  8.0562996e-07
       360   0.36           1.6416562e-17  1.7651436     -50371.876      1.0342663e-17  24.887265      21.553003      132.30785     -9.5514024     -9.5513831     -74.469304     -5.0297267e-06 -2.9719826e-07 -5.6787626e-07
       370   0.37           1.6416562e-17  1.7553073     -50371.878      1.0342663e-17  24.887404      21.553124      132.30496     -21.183725     -21.183717      3.5162181     -1.8458347e-06 -1.1157994e-07 -2.459654e-07 
       380   0.38           1.6416562e-17  1.7511525     -50371.881      1.0342663e-17  24.887389      21.553111      132.30784     -76.374783     -76.374797     -26.502785      4.4146767e-06  2.5418964e-07  3.8766079e-07
       390   0.39           1.6416562e-17  1.7731146     -50371.885      1.0342663e-17  24.887275      21.553013      132.30513     -71.234468     -71.234464      54.397985     -7.4142315e-07 -4.8216202e-08 -1.3609455e-07
       400   0.4            1.6416562e-17  1.8089671     -50371.888      1.0342663e-17  24.88637       21.552228      132.31454     -46.675845     -46.67584      -28.593034     -7.7276387e-07 -5.0406052e-08 -1.3986952e-07
       410   0.41           1.6416562e-17  1.849028      -50371.891      1.0342663e-17  24.885718      21.551664      132.31935     -17.414616     -17.414609     -55.998246     -1.6332362e-06 -1.0115185e-07 -2.2783742e-07
       420   0.42           1.6416562e-17  1.8899258     -50371.893      1.0342663e-17  24.885506      21.55148       132.31865     -14.475498     -14.475502     -28.39198       1.6906372e-06  9.5226401e-08  1.1220043e-07
       430   0.43           1.6416562e-17  1.900264      -50371.895      1.0342663e-17  24.886039      21.551942      132.31629     -118.3527      -118.35272     -49.752506      6.9486565e-06  4.070089e-07   6.5239869e-07
       440   0.44           1.6416562e-17  1.8606632     -50371.898      1.0342663e-17  24.884558      21.55066       132.32708      0.64968556     0.64999875    -91.600028     -8.9881504e-05 -5.3445274e-06 -9.3098021e-06
       450   0.45           1.6416562e-17  1.7674414     -50371.901      1.0342663e-17  24.884761      21.550835      132.32223     -11.034894     -11.038258     -3.54233        0.00097146312  5.7898251e-05  0.0001002294 
       460   0.46           1.6416562e-17  1.6782606     -50371.904      1.0342663e-17  24.884612      21.550706      132.32481     -23.931333     -23.920564     -10.025147     -0.0031082173  -0.00018573934 -0.00032176414
       470   0.47           1.6416562e-17  1.6163285     -50371.906      1.0342663e-17  24.884377      21.550505      132.33041     -44.742517     -44.89701      -52.35417       0.044598747    0.0026725705   0.0046289751 
       480   0.48           1.6416562e-17  1.6221988     -50371.909      1.0342663e-17  24.884209      21.550354      132.33182     -23.021394     -22.824073     -3.2893656     -0.05696133    -0.0034194538  -0.0059227204 
       490   0.49           1.6416562e-17  1.7016076     -50371.912      1.0342663e-17  24.883787      21.55          132.33793     -1.5029466     -2.1207856     -16.394775      0.1783552      0.01073177     0.018587941  
       500   0.5            1.6416562e-17  1.8160138     -50371.914      1.0342663e-17  24.883792      21.549998      132.34247     -36.672437     -36.853915     -43.08228       0.052388786    0.0031589646   0.0054714315 
       510   0.51           1.6416562e-17  1.8934433     -50371.917      1.0342663e-17  24.884459      21.550603      132.33905     -110.75043     -112.89582     -5.1230494      0.61932047     0.037370944    0.064728627  
       520   0.52           1.6416562e-17  1.8896916     -50371.92       1.0342663e-17  24.883152      21.549388      132.35257      3.4808893      7.346726      -71.523039     -1.1159731     -0.067511819   -0.11693295   
       530   0.53           1.6416562e-17  1.8008993     -50371.922      1.0342663e-17  24.884163      21.550179      132.34269     -59.959073     -49.828316      32.339648     -2.9245158     -0.17699458    -0.30655673   
       540   0.54           1.6416562e-17  1.6393509     -50371.924      1.0342663e-17  24.883608      21.549831      132.34949     -36.897451     -36.515742     -48.138314     -0.11018954    -0.0066814839  -0.011572731  
       550   0.55           1.6416562e-17  1.4624566     -50371.925      1.0342663e-17  24.883683      21.54998       132.34545     -12.23433      -17.995902      1.8651853      1.663217       0.10081923     0.17462617   
       560   0.56           1.6416562e-17  1.3121141     -50371.926      1.0342663e-17  24.883934      21.550047      132.34447     -39.557799     -34.34438      -21.107428     -1.5049888     -0.091264478   -0.158073     
       570   0.57           1.6416562e-17  1.2074763     -50371.927      1.0342663e-17  24.883694      21.549663      132.34684     -12.11267       5.9461711     -54.228013     -5.2131973     -0.31623738    -0.54771741   
       580   0.58           1.6416562e-17  1.1501627     -50371.928      1.0342663e-17  24.884473      21.550224      132.33752     -50.455917     -24.040207      16.735006     -7.6256854     -0.46226808    -0.80062505   
       590   0.59           1.6416562e-17  1.1447769     -50371.928      1.0342663e-17  24.884061      21.550269      132.33842     -17.129666     -20.038737     -14.188642      0.83977523     0.050900375    0.088162393  
       600   0.6            1.6416562e-17  1.211055      -50371.929      1.0342663e-17  24.883901      21.550275      132.33791      2.2024997     -11.284633     -39.474263      3.8933671      0.23590317     0.40860825   
       610   0.61           1.6416562e-17  1.310249      -50371.93       1.0342663e-17  24.884434      21.550535      132.33244     -26.513724     -25.27317      -17.149268     -0.3581171     -0.021683787   -0.037557609  
       620   0.62           1.6416562e-17  1.4774169     -50371.931      1.0342663e-17  24.885209      21.551149      132.32267     -63.257316     -57.818883      37.119128     -1.5699455     -0.094886177   -0.16434603   
       630   0.63           1.6416562e-17  1.6958666     -50371.932      1.0342663e-17  24.885219      21.551239      132.32205     -66.954679     -67.443966     -22.212598      0.14124523     0.0085196362   0.014756042  
       640   0.64           1.6416562e-17  1.8769452     -50371.934      1.0342663e-17  24.88508       21.551021      132.32027     -14.290455     -7.6477951     -24.162317     -1.9175785     -0.11546883    -0.19999538   
       650   0.65           1.6416562e-17  2.0215772     -50371.936      1.0342663e-17  24.884912      21.551278      132.3238      -44.18629      -66.9152       -167.71995      6.5611766      0.39396847     0.68240792   
       660   0.66           1.6416562e-17  2.0379159     -50371.938      1.0342663e-17  24.88567       21.551482      132.31263     -18.279607     -8.0350772     -55.976311     -2.95736       -0.17682681    -0.30626653   
       670   0.67           1.6416562e-17  1.9260006     -50371.94       1.0342663e-17  24.88703       21.552361      132.29934     -87.41073      -55.421982      40.675603     -9.2345433     -0.54975917    -0.95214135   
       680   0.68           1.6416562e-17  1.7504655     -50371.942      1.0342663e-17  24.886352      21.552241      132.30461     -35.500728     -37.538631     -25.357494      0.58829125     0.034928721    0.060497836  
       690   0.69           1.6416562e-17  1.4926661     -50371.944      1.0342663e-17  24.885868      21.551975      132.30946      9.755811      -3.4805413     -65.073499      3.8209738      0.2263599      0.39207822   
       700   0.7            1.6416562e-17  1.2788642     -50371.945      1.0342663e-17  24.886605      21.552545      132.30241     -29.63987      -37.863319      13.471035      2.3738933      0.14031421     0.24303532   
       710   0.71           1.6416562e-17  1.093071      -50371.946      1.0342663e-17  24.886828      21.552547      132.304       -60.087515     -54.417681     -1.7815962     -1.6367455     -0.09661882    -0.16734712   
       720   0.72           1.6416562e-17  0.99336259    -50371.946      1.0342663e-17  24.886221      21.552068      132.30974     -2.5902669     -0.2898518     -18.652837     -0.66407317    -0.039184157   -0.067869129  
       730   0.73           1.6416562e-17  0.95920816    -50371.947      1.0342663e-17  24.886166      21.552023      132.31551     -44.725901     -42.60538      -92.711874     -0.61214191    -0.036111393   -0.062546845  
       740   0.74           1.6416562e-17  1.005393      -50371.948      1.0342663e-17  24.886015      21.551966      132.31467     -2.1193429     -5.3555144     -24.790539      0.93420106     0.055094815    0.095427579  
       750   0.75           1.6416562e-17  1.1196124     -50371.948      1.0342663e-17  24.886381      21.552531      132.31072     -34.142857     -55.416064      34.724137      6.140964       0.36199712     0.62702921   
       760   0.76           1.6416562e-17  1.2836543     -50371.949      1.0342663e-17  24.88585       21.551871      132.32036     -18.28188      -25.024831     -36.536724      1.9465149      0.11486885     0.19896237   
       770   0.77           1.6416562e-17  1.5178075     -50371.952      1.0342663e-17  24.88522       21.551553      132.32856      1.7795147     -21.557357     -79.758895      6.7366769      0.39828307     0.6898858    
       780   0.78           1.6416562e-17  1.6619568     -50371.954      1.0342663e-17  24.886388      21.552093      132.31844     -67.580675     -56.605736      59.523588     -3.1682121     -0.18754611    -0.32482913   
       790   0.79           1.6416562e-17  1.6502414     -50371.957      1.0342663e-17  24.885542      21.550978      132.33009     -17.651897      21.183859     -27.070923     -11.211189     -0.66603937    -1.1535068    
       800   0.8            1.6416562e-17  1.4718114     -50371.959      1.0342663e-17  24.885182      21.551551      132.33127     -42.177233     -67.735885     -77.090109      7.3780303      0.43979623     0.76179692   
       810   0.81           1.6416562e-17  1.3058833     -50371.961      1.0342663e-17  24.885341      21.551392      132.32722     -21.318764     -25.300498     -16.488953      1.1494262      0.068645146    0.1189001    
       820   0.82           1.6416562e-17  1.0784184     -50371.963      1.0342663e-17  24.886134      21.551799      132.31749     -66.827591     -50.378194      60.262054     -4.7485801     -0.28411491    -0.49208127   
       830   0.83           1.6416562e-17  0.97170868    -50371.966      1.0342663e-17  24.885227      21.551259      132.32292     -2.9324149     -4.4301801     -2.8414543      0.43236733     0.025947002    0.044942612  
       840   0.84           1.6416562e-17  1.0141249     -50371.967      1.0342663e-17  24.883884      21.55143       132.32973      48.334314     -50.347518     -108.55918      28.485216      1.7128343      2.9673785    
       850   0.85           1.6416562e-17  1.1139378     -50371.969      1.0342663e-17  24.885115      21.551257      132.32043     -16.615104     -25.071518     -5.4417374      2.4411424      0.1469204      0.25447742   
       860   0.86           1.6416562e-17  1.2000552     -50371.973      1.0342663e-17  24.885619      21.551747      132.32385     -193.27633     -205.58245     -126.51032      3.5524391      0.21431176     0.37120607   
       870   0.87           1.6416562e-17  0.3011205     -50372.006      1.0342663e-17  24.884841      21.554258      132.33016     -295.9257      -540.21406     -235.05235      70.50907       4.2343606      7.3381921    
       880   0.88           1.6416562e-17  0.186291      -50372.014      1.0342663e-17  24.884928      21.550857      132.32682     -7.9844847      0.94657899     2.890623      -2.5781892     -0.15409335    -0.26689092   
       890   0.89           1.6416562e-17  0.16597902    -50372.014      1.0342663e-17  24.885013      21.55095       132.32588     -10.953185     -3.4663955     -3.4876371     -2.1612588     -0.12908442    -0.22357562   
       900   0.9            1.6416562e-17  0.13473965    -50372.015      1.0342663e-17  24.884894      21.550868      132.32694      1.9035932      7.8541699     -27.235826     -1.7177887     -0.10255586    -0.17762807   
       910   0.91           1.6416562e-17  0.10403537    -50372.015      1.0342663e-17  24.885104      21.551224      132.32321     -3.9056467     -10.55389      -4.0661274      1.9191758      0.11468369     0.19864253   
       920   0.92           1.6416562e-17  0.091315665   -50372.015      1.0342663e-17  24.885152      21.55124       132.32238      0.47309716    -4.3771196      1.9604139      1.4001339      0.083648545    0.14488667   
       930   0.93           1.6416562e-17  0.088118579   -50372.015      1.0342663e-17  24.885564      21.550875      132.32313     -29.148287      18.642436     -13.77266      -13.79641      -0.82413633    -1.4272885    
       940   0.94           1.6416562e-17  0.050914605   -50372.015      1.0342663e-17  24.88512       21.551155      132.32334     -0.062906686   -0.69242494    -0.75975717     0.18172637     0.010715702    0.018559598  
       950   0.95           1.6416562e-17  0.045799085   -50372.015      1.0342663e-17  24.885176      21.551091      132.32357     -8.9681375     -1.4149515      1.698084      -2.1804275     -0.13045816    -0.2259572    
       960   0.96           1.6416562e-17  0.020022332   -50372.015      1.0342663e-17  24.884889      21.551088      132.32514      4.3853631     -5.9703365     -4.2629676      2.9894135      0.17884191     0.30976982   
       970   0.97           1.6416562e-17  0.016057732   -50372.015      1.0342663e-17  24.884995      21.551039      132.32473     -0.30721944    -0.42784222    -0.16497349     0.034821249    0.0021202615   0.0036720334 
       980   0.98           1.6416562e-17  0.014713792   -50372.015      1.0342663e-17  24.885097      21.551036      132.32464     -10.333589     -3.7988345     -8.0269904     -1.8864281     -0.11280709    -0.19538445   
       990   0.99           1.6416562e-17  0.0093444933  -50372.015      1.0342663e-17  24.885034      21.551074      132.32424      0.010399909   -0.14748802    -0.20966107     0.04557915     0.0026960493   0.004670073  
      1000   1              1.6416562e-17  0.0067565764  -50372.015      1.0342663e-17  24.885032      21.551085      132.32419      0.24614739    -0.81462427     0.23363731     0.30621894     0.018277326    0.031657654  
      1010   1.01           1.6416562e-17  0.0048265095  -50372.015      1.0342663e-17  24.885038      21.551069      132.32429     -0.21920236     0.21651464    -0.21042478    -0.12578026    -0.0075059974  -0.013000788  
      1020   1.02           1.6416562e-17  0.0033743709  -50372.015      1.0342663e-17  24.885026      21.551074      132.32434      0.011747668   -0.60615029    -0.99146927     0.17837214     0.010690264    0.018516     
      1030   1.03           1.6416562e-17  0.00176428    -50372.015      1.0342663e-17  24.885027      21.551065      132.32435      0.00591776     0.0025498871  -0.021607527    0.0009727354   6.2603564e-05  0.00010828786
      1040   1.04           1.6416562e-17  0.00088267904 -50372.015      1.0342663e-17  24.885027      21.551066      132.32435     -0.015859674   -0.042438867    0.028333619    0.0076732496   0.00045418878  0.00078657886
      1050   1.05           1.6416562e-17  0.00087382703 -50372.015      1.0342663e-17  24.885027      21.551065      132.32435     -0.034389555    0.0050527675  -0.0038421577  -0.011385515   -0.00068469884 -0.0011860073 
      1060   1.06           1.6416562e-17  0.00072969414 -50372.015      1.0342663e-17  24.885026      21.551068      132.32435      0.041167818   -0.19251016    -0.17324123     0.06745753     0.0040314486   0.0069826393 
      1070   1.07           1.6416562e-17  0.00054710698 -50372.015      1.0342663e-17  24.885028      21.551067      132.32433     -0.016393518   -0.014578362   -0.0079656374  -0.00052345131 -3.1048455e-05 -5.3783904e-05
      1080   1.08           1.6416562e-17  0.00040239728 -50372.015      1.0342663e-17  24.885031      21.551067      132.32432     -0.18704906     0.016598226    0.059101494   -0.058787359   -0.0035131544  -0.0060849467 
      1090   1.09           1.6416562e-17  0.00044679886 -50372.015      1.0342663e-17  24.885029      21.551067      132.32433      0.0059323517  -0.0031448244  -0.012658933    0.0026209176   0.00015861501  0.00027473847
      1100   1.1            1.6416562e-17  0.00045625931 -50372.015      1.0342663e-17  24.885029      21.551068      132.32432     -0.0054068076  -0.033021212   -0.0070488493   0.0079721497   0.0004777263   0.00082744072
      1110   1.11           1.6416562e-17  0.00041617748 -50372.015      1.0342663e-17  24.88503       21.551067      132.32433     -0.13090424    -0.02869788    -0.081413539   -0.029503897   -0.0017650022  -0.0030571137 
      1120   1.12           1.6416562e-17  0.00037739409 -50372.015      1.0342663e-17  24.885029      21.551067      132.32433     -0.0043684871  -0.00065109853 -0.0069864502  -0.001072597   -6.6361125e-05 -0.00011501105
      1130   1.13           1.6416562e-17  0.00031857852 -50372.015      1.0342663e-17  24.885026      21.551068      132.32433      0.087790485   -0.15279433     0.0025671938   0.069451338    0.0041500076   0.0071879211 
      1140   1.14           1.6416562e-17  0.00022758401 -50372.015      1.0342663e-17  24.885028      21.551066      132.32434     -0.0047087993  -1.1997037e-05 -0.00020922468 -0.0013553606  -8.1739306e-05 -0.00014169518
      1150   1.15           1.6416562e-17  0.00017758192 -50372.015      1.0342663e-17  24.885028      21.551066      132.32434     -0.031465777   -0.0089134826  -0.037630353   -0.0065097874  -0.00038855161 -0.0006730985 
      1160   1.16           1.6416562e-17  0.00017715597 -50372.015      1.0342663e-17  24.885028      21.551066      132.32434     -0.010966891   -0.023831465   -0.0076113822   0.0037142008   0.000224144    0.00038814576
      1170   1.17           1.6416562e-17  0.00019726439 -50372.015      1.0342663e-17  24.885028      21.551066      132.32434     -0.0061101876  -0.0056381938   0.0034611539  -0.0001357181  -5.5655491e-06 -9.6999198e-06
      1180   1.18           1.6416562e-17  0.00018452379 -50372.015      1.0342663e-17  24.885028      21.551066      132.32434     -0.0018597403   0.032407062   -0.064700047   -0.0098914094  -0.00059020968 -0.0010222835 
      1190   1.19           1.6416562e-17  0.00013241027 -50372.015      1.0342663e-17  24.885028      21.551067      132.32433     -0.00023285099 -0.0025293707   0.0004681987   0.0006635137   3.9160054e-05  6.782607e-05 
      1193   1.193          1.6416562e-17  0.00012832625 -50372.015      1.0342663e-17  24.885028      21.551066      132.32433     -0.0096071584   0.025929928   -0.00011644068 -0.010258109   -0.0006139881  -0.00106346   
Loop time of 168.896 on 2 procs for 1000 steps with 4875 atoms

98.5% CPU use with 1 MPI tasks x 2 OpenMP threads

Minimization stats:
  Stopping criterion = max iterations
  Energy initial, next-to-last, final = 
     -50352.3210018059   -50372.015299537  -50372.0152995328
  Force two-norm initial, final = 1623.022 0.00122221
  Force max component initial, final = 1622.0566 0.0011397304
  Final line search alpha, max atom move = 1 0.0011397304
  Iterations, force evaluations = 1000 1978

MPI task timing breakdown:
Section |  min time  |  avg time  |  max time  |%varavg| %total
---------------------------------------------------------------
Pair    | 168.2      | 168.2      | 168.2      |   0.0 | 99.59
Neigh   | 0.04238    | 0.04238    | 0.04238    |   0.0 |  0.03
Comm    | 0.12472    | 0.12472    | 0.12472    |   0.0 |  0.07
Output  | 0.0061527  | 0.0061527  | 0.0061527  |   0.0 |  0.00
Modify  | 0          | 0          | 0          |   0.0 |  0.00
Other   |            | 0.5194     |            |       |  0.31

Nlocal:           4875 ave        4875 max        4875 min
Histogram: 1 0 0 0 0 0 0 0 0 0
Nghost:          11117 ave       11117 max       11117 min
Histogram: 1 0 0 0 0 0 0 0 0 0
Neighs:              0 ave           0 max           0 min
Histogram: 1 0 0 0 0 0 0 0 0 0
FullNghs:       553500 ave      553500 max      553500 min
Histogram: 1 0 0 0 0 0 0 0 0 0

Total # of neighbors = 553500
Ave neighs/atom = 113.53846
Neighbor list builds = 4
Dangerous builds = 0
Switching to 'neigh_modify every 1 delay 0 check yes' setting during minimization
Setting up fire style minimization ...
  Unit style    : metal
  Current step  : 1193
  Parameters for fire:
    dmax  delaystep dtgrow dtshrink alpha0 alphashrink tmax tmin   integrator   halfstepback   abcfire  
     0.1     20      1.1     0.5     0.25     0.99      10  0.02 eulerimplicit      yes          no     
Per MPI rank memory allocation (min/avg/max) = 6.778 | 6.778 | 6.778 Mbytes
   Step          Time           Temp          Fnorm          PotEng         KinEng           Lx             Ly             Lz            Pxx            Pyy            Pzz            Pxy            Pxz            Pyz      
      1193   1.193          0              0.00012832625 -50372.015      0              24.885028      21.551066      132.32433     -0.0096071585   0.025929928   -0.00011644049 -0.010258109   -0.00061398814 -0.00106346   
      1200   1.2            6.5265875e-11  0.00012207019 -50372.015      4.1118412e-11  24.885028      21.551066      132.32433     -0.0096088647   0.025889516    0.0007513944  -0.010246937   -0.00061377068 -0.001063084  
      1210   1.21           3.4368029e-10  9.8495937e-05 -50372.015      2.1652338e-10  24.885028      21.551066      132.32433     -0.009592359    0.025711036    0.0044878165  -0.010190655   -0.00061876846 -0.0010717468 
      1220   2.1613044      8.539364e-10   5.9913768e-05 -50372.015      5.3799184e-10  24.885028      21.551066      132.32433     -0.0097884912   0.02508703     0.011357805   -0.010067151   -0.00062907876 -0.00108962   
      1230   5.6518168      1.2870335e-09  9.0108706e-06 -50372.015      8.1084905e-10  24.885028      21.551066      132.32433     -0.014419082    0.019904666    0.022522776   -0.0099078868  -0.00057952881 -0.0010038316 
      1240   2.8488833      2.2177155e-12  5.4042993e-06 -50372.015      1.3971917e-12  24.885028      21.551066      132.32433     -0.014184544    0.020139995    0.022446475   -0.009908115   -0.00058692454 -0.001016641  
      1250   2.8718581      4.5924331e-12  1.0475167e-06 -50372.015      2.8932969e-12  24.885028      21.551066      132.32433     -0.014229847    0.020119983    0.022849377   -0.009915415   -0.00059959709 -0.0010385899 
      1260   1.9265113      1.1587142e-15  3.9051275e-07 -50372.015      7.3000608e-16  24.885028      21.551066      132.32433     -0.014114297    0.020241201    0.022601725   -0.0099170509  -0.00060494024 -0.0010478422 
      1270   1.9418011      6.7993414e-15  2.6165048e-07 -50372.015      4.2836799e-15  24.885028      21.551066      132.32433     -0.014108018    0.020246286    0.022600632   -0.0099167062  -0.00060457733 -0.0010472142 
      1280   3.1519145      1.2365889e-14  4.1215159e-08 -50372.015      7.7906822e-15  24.885028      21.551066      132.32433     -0.014094777    0.020256995    0.022586398   -0.0099159753  -0.00060387307 -0.0010459941 
      1290   1.921806       4.5786322e-18  2.0902133e-08 -50372.015      2.8846022e-18  24.885028      21.551066      132.32433     -0.014091939    0.020258704    0.02258055    -0.0099156496  -0.00060371027 -0.0010457124 
      1300   1.9367037      2.0686731e-17  1.5544316e-08 -50372.015      1.3032929e-17  24.885028      21.551066      132.32433     -0.014092375    0.020258229    0.02258141    -0.0099156384  -0.00060373781 -0.0010457599 
      1307   2.8507961      3.5104201e-17  9.4021754e-09 -50372.015      2.2116136e-17  24.885028      21.551066      132.32433     -0.01409296     0.020257588    0.022582443   -0.0099156221  -0.00060378133 -0.0010458354 
Loop time of 10.153 on 2 procs for 114 steps with 4875 atoms

98.5% CPU use with 1 MPI tasks x 2 OpenMP threads

Minimization stats:
  Stopping criterion = force tolerance
  Energy initial, next-to-last, final = 
     -50372.0152995327  -50372.0152995371  -50372.0152995378
  Force two-norm initial, final = 0.00012832625 9.4021754e-09
  Force max component initial, final = 1.8586985e-06 2.4177642e-10
  Final line search alpha, max atom move = 0 0
  Iterations, force evaluations = 114 118

MPI task timing breakdown:
Section |  min time  |  avg time  |  max time  |%varavg| %total
---------------------------------------------------------------
Pair    | 10.131     | 10.131     | 10.131     |   0.0 | 99.78
Neigh   | 0          | 0          | 0          |   0.0 |  0.00
Comm    | 0.01015    | 0.01015    | 0.01015    |   0.0 |  0.10
Output  | 0.00067419 | 0.00067419 | 0.00067419 |   0.0 |  0.01
Modify  | 0          | 0          | 0          |   0.0 |  0.00
Other   |            | 0.01135    |            |       |  0.11

Nlocal:           4875 ave        4875 max        4875 min
Histogram: 1 0 0 0 0 0 0 0 0 0
Nghost:          11117 ave       11117 max       11117 min
Histogram: 1 0 0 0 0 0 0 0 0 0
Neighs:              0 ave           0 max           0 min
Histogram: 1 0 0 0 0 0 0 0 0 0
FullNghs:       553500 ave      553500 max      553500 min
Histogram: 1 0 0 0 0 0 0 0 0 0

Total # of neighbors = 553500
Ave neighs/atom = 113.53846
Neighbor list builds = 0
Dangerous builds = 0
Switching to 'neigh_modify every 1 delay 0 check yes' setting during minimization
Setting up cg style minimization ...
  Unit style    : metal
  Current step  : 1307
WARNING: Energy due to 3 extra global DOFs will be included in minimizer energies
 (src/min.cpp:219)
Per MPI rank memory allocation (min/avg/max) = 7.903 | 7.903 | 7.903 Mbytes
   Step          Time           Temp          Fnorm          PotEng         KinEng           Lx             Ly             Lz            Pxx            Pyy            Pzz            Pxy            Pxz            Pyz      
      1307   1.307          3.5104201e-17  9.4022674e-09 -50372.015      2.2116136e-17  24.885028      21.551066      132.32433     -0.01409296     0.020257588    0.022582444   -0.0099156221  -0.00060378127 -0.0010458355 
      1310   1.31           3.5104201e-17  3.8381771e-06 -50372.015      2.2116136e-17  24.885028      21.551066      132.32434      0.00028160295  0.0003508731   0.00044023419 -1.9469128e-05 -1.2033045e-05 -2.0897818e-05
      1320   1.32           3.5104201e-17  8.3544641e-07 -50372.015      2.2116136e-17  24.885028      21.551066      132.32434     -5.1770104e-05 -5.4854768e-05 -7.2579622e-05  1.4177099e-06  3.1489543e-05  5.4485739e-05
      1330   1.33           3.5104201e-17  5.3914062e-07 -50372.015      2.2116136e-17  24.885028      21.551066      132.32434     -7.5414142e-05 -4.5407718e-05 -7.9723176e-06 -8.1347529e-06 -5.0746459e-06 -8.845702e-06 
      1340   1.34           3.5104201e-17  6.4019845e-07 -50372.015      2.2116136e-17  24.885028      21.551066      132.32434      3.7131645e-05 -3.4865657e-06  6.2297768e-06  1.2252946e-05 -2.5781538e-05 -4.4711183e-05
      1350   1.35           3.5104201e-17  5.7659555e-07 -50372.015      2.2116136e-17  24.885028      21.551066      132.32434     -3.1653471e-05  7.7354836e-07  2.4853943e-05 -8.8333579e-06 -3.9904339e-05 -6.9172829e-05
      1360   1.36           3.5104201e-17  4.8864467e-07 -50372.015      2.2116136e-17  24.885028      21.551066      132.32434      5.2850961e-05  5.7039918e-05  3.9469069e-05 -6.8190318e-07 -4.196621e-05  -7.2743786e-05
      1370   1.37           3.5104201e-17  4.1594885e-07 -50372.015      2.2116136e-17  24.885028      21.551066      132.32434     -1.4426639e-07 -2.3569859e-06  7.0537866e-07  1.1658613e-06 -3.3167622e-05 -5.7503712e-05
      1380   1.38           3.5104201e-17  3.793751e-07  -50372.015      2.2116136e-17  24.885028      21.551066      132.32434     -3.9703347e-06 -4.3580396e-05 -2.7544952e-05  1.1961478e-05 -1.84626e-05   -3.2033558e-05
      1390   1.39           3.5104201e-17  3.5851405e-07 -50372.015      2.2116136e-17  24.885028      21.551066      132.32434     -2.3292105e-05 -8.687164e-06   2.4000734e-06 -3.6891931e-06 -7.0191566e-06 -1.221291e-05 
      1400   1.4            3.5104201e-17  3.4728873e-07 -50372.015      2.2116136e-17  24.885028      21.551066      132.32434     -2.8821084e-05  8.0403137e-06  8.1067909e-06 -1.0114004e-05  6.7055877e-06  1.1558954e-05
      1410   1.41           3.5104201e-17  3.5843767e-07 -50372.015      2.2116136e-17  24.885028      21.551066      132.32434      1.079065e-07   2.4890815e-06 -1.9992571e-06 -1.6041528e-07  1.7207462e-05  2.9748767e-05
      1420   1.42           3.5104201e-17  3.929603e-07  -50372.015      2.2116136e-17  24.885028      21.551066      132.32434     -2.3676341e-05  3.2996139e-05  2.6864187e-05 -1.5832738e-05  2.511865e-05   4.3450904e-05
      1430   1.43           3.5104201e-17  4.0707934e-07 -50372.015      2.2116136e-17  24.885028      21.551066      132.32434      2.3564048e-06  9.665238e-06   2.000299e-05  -1.5826714e-06  3.3730898e-05  5.8367741e-05
      1440   1.44           3.5104201e-17  3.6585472e-07 -50372.015      2.2116136e-17  24.885028      21.551066      132.32434      3.6913053e-05  3.0983935e-05  1.8953466e-05  2.2383562e-06  3.5267531e-05  6.1030181e-05
      1450   1.45           3.5104201e-17  2.8759041e-07 -50372.015      2.2116136e-17  24.885028      21.551066      132.32434      4.2542061e-05  3.5346574e-05  1.757514e-05   2.6040702e-06  3.0802319e-05  5.3295991e-05
      1460   1.46           3.5104201e-17  2.580005e-07  -50372.015      2.2116136e-17  24.885028      21.551066      132.32434      4.3929039e-06  3.9499832e-07  3.1815443e-06  1.6806238e-06  2.483493e-05   4.2961256e-05
      1470   1.47           3.5104201e-17  2.5982533e-07 -50372.015      2.2116136e-17  24.885028      21.551066      132.32434      3.5865803e-06 -9.9176717e-06  1.4303028e-05  4.4250599e-06  1.773435e-05   3.0662314e-05
      1480   1.48           3.5104201e-17  2.8600286e-07 -50372.015      2.2116136e-17  24.885028      21.551066      132.32434      2.0448592e-05 -1.7308957e-05  9.9094982e-06  1.1426271e-05  5.3682928e-06  9.2436417e-06
      1490   1.49           3.5104201e-17  2.9244311e-07 -50372.015      2.2116136e-17  24.885028      21.551066      132.32434      2.5953919e-06 -3.3125545e-07 -1.4408806e-06  1.3717496e-06 -6.7860228e-06 -1.1808802e-05
      1500   1.5            3.5104201e-17  2.797438e-07  -50372.015      2.2116136e-17  24.885028      21.551066      132.32434      6.2416859e-06 -1.0446556e-05 -5.1810686e-07  5.3447934e-06 -1.5375722e-05 -2.6687251e-05
      1510   1.51           3.5104201e-17  2.5361212e-07 -50372.015      2.2116136e-17  24.885028      21.551066      132.32434     -1.0049892e-05 -2.621471e-05   2.0990884e-05  5.1936734e-06 -2.2409996e-05 -3.8871151e-05
      1520   1.52           3.5104201e-17  2.5079219e-07 -50372.015      2.2116136e-17  24.885028      21.551066      132.32434      1.7329568e-06 -3.6455887e-06 -3.3499584e-06  2.0800655e-06 -2.4061505e-05 -4.1731916e-05
      1530   1.53           3.5104201e-17  2.5341959e-07 -50372.015      2.2116136e-17  24.885028      21.551066      132.32434     -1.2084975e-05 -1.6188131e-05 -9.6150959e-06  1.712189e-06  -2.1947437e-05 -3.8070802e-05
      1540   1.54           3.5104201e-17  2.3207082e-07 -50372.015      2.2116136e-17  24.885028      21.551066      132.32434     -4.156186e-05  -4.2849442e-05 -3.6979856e-05  8.9955411e-07 -1.5488027e-05 -2.6883328e-05
      1550   1.55           3.5104201e-17  2.0012287e-07 -50372.015      2.2116136e-17  24.885028      21.551066      132.32434     -4.9519065e-06 -3.7867119e-06 -2.7800083e-06  1.9099081e-07 -9.5653578e-06 -1.6623897e-05
      1560   1.56           3.5104201e-17  1.8151413e-07 -50372.015      2.2116136e-17  24.885028      21.551066      132.32434     -1.0579072e-05  4.1847049e-06 -2.3082347e-06 -3.734458e-06  -5.4953695e-06 -9.5745806e-06
      1570   1.57           3.5104201e-17  1.8408691e-07 -50372.015      2.2116136e-17  24.885028      21.551066      132.32434     -2.7788766e-06  1.0621268e-05 -2.4498815e-05 -3.3411335e-06 -1.1125603e-06 -1.9827281e-06
      1580   1.58           3.5104201e-17  1.9430584e-07 -50372.015      2.2116136e-17  24.885028      21.551066      132.32434     -9.202738e-07  -3.5072431e-06  1.8300592e-06  1.2742446e-06  2.7733683e-06  4.7473177e-06
      1590   1.59           3.5104201e-17  1.5838924e-07 -50372.015      2.2116136e-17  24.885028      21.551066      132.32434      6.1298082e-07 -1.2861193e-06  4.3507038e-07  1.0754889e-06  5.2825107e-06  9.093885e-06 
      1600   1.6            3.5104201e-17  1.2980054e-07 -50372.015      2.2116136e-17  24.885028      21.551066      132.32434      2.2266894e-06 -2.127548e-06   5.0313141e-07  1.784215e-06   5.6235528e-06  9.684417e-06 
      1610   1.61           3.5104201e-17  1.3347408e-07 -50372.015      2.2116136e-17  24.885028      21.551066      132.32434      1.0412224e-05 -8.4831161e-06 -1.0730229e-06  5.9819997e-06  5.2659398e-06  9.0647367e-06
      1620   1.62           3.5104201e-17  1.5650135e-07 -50372.015      2.2116136e-17  24.885028      21.551066      132.32434      2.7097283e-05 -1.9475196e-05 -1.0102914e-05  1.3971089e-05  3.8996516e-06  6.6996811e-06
      1630   1.63           3.5104201e-17  1.4503226e-07 -50372.015      2.2116136e-17  24.885028      21.551066      132.32434      9.2079716e-06 -3.7874663e-06 -6.6286691e-06  4.2778542e-06  8.2019047e-07  1.3665694e-06
      1640   1.64           3.5104201e-17  1.1304292e-07 -50372.015      2.2116136e-17  24.885028      21.551066      132.32434      2.0558605e-06 -3.6978289e-07 -1.6633168e-06  1.2262415e-06 -7.6930221e-07 -1.3862738e-06
      1650   1.65           3.5104201e-17  9.0769925e-08 -50372.015      2.2116136e-17  24.885028      21.551066      132.32434      9.29093e-07    1.8437438e-08 -2.4013516e-07  7.8906367e-07 -1.530095e-06  -2.7043172e-06
      1660   1.66           3.5104201e-17  7.9361922e-08 -50372.015      2.2116136e-17  24.885028      21.551066      132.32434      1.75082e-06   -2.9645963e-07  8.7321453e-07  1.117325e-06  -1.8014813e-06 -3.1748727e-06
      1670   1.67           3.5104201e-17  7.4797251e-08 -50372.015      2.2116136e-17  24.885028      21.551066      132.32434      4.5978596e-06 -1.793644e-06   4.959797e-06   2.3717226e-06 -1.6277781e-06 -2.8745156e-06
      1680   1.68           3.5104201e-17  8.2746408e-08 -50372.015      2.2116136e-17  24.885028      21.551066      132.32434      1.013957e-05  -4.6000588e-06  1.7581864e-05  4.7820434e-06 -8.0651102e-07 -1.452599e-06 
      1690   1.69           3.5104201e-17  9.4401076e-08 -50372.015      2.2116136e-17  24.885028      21.551066      132.32434      1.1186474e-05  2.018301e-08   2.171204e-05   3.7516599e-06  7.7044662e-07  1.2771474e-06
      1700   1.7            3.5104201e-17  7.6893819e-08 -50372.015      2.2116136e-17  24.885028      21.551066      132.32434      5.550313e-06   1.1214798e-07  5.591086e-06   2.0987752e-06  2.2432396e-06  3.8273381e-06
      1710   1.71           3.5104201e-17  5.3269356e-08 -50372.015      2.2116136e-17  24.885028      21.551066      132.32434      1.4366546e-06  5.6241631e-07  7.6565297e-07  7.8142672e-07  2.855286e-06   4.8869282e-06
      1720   1.72           3.5104201e-17  4.5447038e-08 -50372.015      2.2116136e-17  24.885028      21.551066      132.32434      1.8086655e-06  2.0843108e-06  1.6957384e-06  4.4923773e-07  2.9411114e-06  5.0358945e-06
      1730   1.73           3.5104201e-17  5.4651598e-08 -50372.015      2.2116136e-17  24.885028      21.551066      132.32434      6.9474413e-06  7.37108e-06    7.7405527e-06  4.0535619e-07  2.5225032e-06  4.3122423e-06
      1740   1.74           3.5104201e-17  6.4343738e-08 -50372.015      2.2116136e-17  24.885028      21.551066      132.32434      1.4596997e-05  1.4350509e-05  1.8442923e-05  5.9719497e-07  1.0095226e-06  1.6941542e-06
      1750   1.75           3.5104201e-17  4.8033989e-08 -50372.015      2.2116136e-17  24.885028      21.551066      132.32434      7.2693032e-06  8.4741456e-06  1.0397335e-05  1.7677343e-07 -9.2744513e-07 -1.6582298e-06
      1760   1.76           3.5104201e-17  3.3195642e-08 -50372.015      2.2116136e-17  24.885028      21.551066      132.32434      1.95517e-06    2.3190944e-06  2.2410013e-06  4.1909435e-07 -1.7964316e-06 -3.1624783e-06
      1770   1.77           3.5104201e-17  3.0287528e-08 -50372.015      2.2116136e-17  24.885028      21.551066      132.32434      5.675449e-07   7.0448739e-07  4.3015314e-07  4.8537114e-07 -2.2259866e-06 -3.9071421e-06
      1780   1.78           3.5104201e-17  3.4295299e-08 -50372.015      2.2116136e-17  24.885028      21.551066      132.32434     -4.4623762e-08  8.6590862e-07  4.4505033e-08  2.6329031e-07 -2.4467488e-06 -4.2911496e-06
      1790   1.79           3.5104201e-17  3.6664091e-08 -50372.015      2.2116136e-17  24.885028      21.551066      132.32434     -1.9044824e-06  4.0525822e-06  1.887823e-06  -1.1915014e-06 -2.3202216e-06 -4.0747699e-06
      1800   1.8            3.5104201e-17  3.2892031e-08 -50372.015      2.2116136e-17  24.885028      21.551066      132.32434     -2.8210947e-06  3.8528121e-06  5.9647326e-06 -1.3967421e-06 -1.3055601e-06 -2.3205684e-06
      1810   1.81           3.5104201e-17  2.9633291e-08 -50372.015      2.2116136e-17  24.885028      21.551066      132.32434     -1.0530652e-06  4.5898897e-07  2.2765437e-06  9.3713293e-08  5.6894792e-08  3.7983231e-08
      1820   1.82           3.5104201e-17  2.564092e-08  -50372.015      2.2116136e-17  24.885028      21.551066      132.32434     -4.3799986e-07  2.5987209e-07  4.2113221e-07  3.2851942e-07  1.0923764e-06  1.8311308e-06
      1830   1.83           3.5104201e-17  2.1517018e-08 -50372.015      2.2116136e-17  24.885028      21.551066      132.32434     -1.730229e-07   1.8843334e-07 -9.0247129e-08  4.2457055e-07  1.7384877e-06  2.9512987e-06
      1840   1.84           3.5104201e-17  2.0950596e-08 -50372.015      2.2116136e-17  24.885028      21.551066      132.32434     -3.4746373e-07  4.433568e-07  -6.9566918e-07  2.9966881e-07  1.9258425e-06  3.2771155e-06
      1850   1.85           3.5104201e-17  2.363672e-08  -50372.015      2.2116136e-17  24.885028      21.551066      132.32434     -1.0748449e-06  1.8239348e-06 -3.4168836e-06 -3.1010509e-07  1.6819862e-06  2.8567083e-06
      1860   1.86           3.5104201e-17  2.4250295e-08 -50372.015      2.2116136e-17  24.885028      21.551066      132.32434     -1.244047e-06   1.1368718e-06 -1.6226275e-06 -1.6212266e-07  1.0008768e-06  1.6803022e-06
      1870   1.87           3.5104201e-17  1.9846267e-08 -50372.015      2.2116136e-17  24.885028      21.551066      132.32434     -3.579137e-07  -1.0285767e-07 -1.2064812e-07  4.5054099e-07  3.9973338e-07  6.4165369e-07
      1880   1.88           3.5104201e-17  1.5216308e-08 -50372.015      2.2116136e-17  24.885028      21.551066      132.32434     -1.0797276e-06 -9.5740402e-07 -7.1848423e-07  4.8885127e-07 -3.6428647e-08 -1.1287409e-07
      1890   1.89           3.5104201e-17  1.3376869e-08 -50372.015      2.2116136e-17  24.885028      21.551066      132.32434     -3.244423e-06  -1.9972479e-06 -2.324675e-06   1.6488013e-07 -3.8702595e-07 -7.206883e-07 
      1900   1.9            3.5104201e-17  1.5774271e-08 -50372.015      2.2116136e-17  24.885028      21.551066      132.32434     -1.9701875e-06 -4.1216786e-07 -1.5934522e-06  7.6513683e-08 -6.6160401e-07 -1.1982709e-06
      1910   1.91           3.5104201e-17  1.8087545e-08 -50372.015      2.2116136e-17  24.885028      21.551066      132.32434     -6.3635818e-07 -7.2275086e-08 -6.3284399e-07  3.6503368e-07 -8.0475021e-07 -1.4491298e-06
      1920   1.92           3.5104201e-17  1.5620115e-08 -50372.015      2.2116136e-17  24.885028      21.551066      132.32434     -3.921963e-07  -3.2676169e-07 -3.9118448e-07  5.1043503e-07 -7.3682679e-07 -1.3344723e-06
      1930   1.93           3.5104201e-17  1.406391e-08  -50372.015      2.2116136e-17  24.885028      21.551066      132.32434     -1.1134624e-06 -7.9674535e-07 -7.5273458e-07  4.3848867e-07 -6.3110542e-07 -1.1528884e-06
      1940   1.94           3.5104201e-17  1.2873606e-08 -50372.015      2.2116136e-17  24.885028      21.551066      132.32434     -2.1642307e-06 -8.2999286e-07 -4.1241941e-07  1.4470473e-07 -4.4871646e-07 -8.3751962e-07
      1950   1.95           3.5104201e-17  1.3044772e-08 -50372.015      2.2116136e-17  24.885028      21.551066      132.32434     -6.7794334e-07 -1.8103545e-07  1.1641936e-07  3.8595391e-07 -1.7846118e-07 -3.6963995e-07
      1960   1.96           3.5104201e-17  1.3424439e-08 -50372.015      2.2116136e-17  24.885028      21.551066      132.32434     -2.4235729e-07  2.7849621e-09 -1.269668e-07   4.5834364e-07  8.4110931e-08  8.4986751e-08
      1970   1.97           3.5104201e-17  1.3185258e-08 -50372.015      2.2116136e-17  24.885028      21.551066      132.32434     -3.9356402e-07  1.1417196e-07 -5.7653743e-07  3.8198256e-07  3.4951538e-07  5.4482895e-07
      1980   1.98           3.5104201e-17  1.1737642e-08 -50372.015      2.2116136e-17  24.885028      21.551066      132.32434     -9.9191702e-07  8.6674943e-07 -9.0942551e-07 -8.9993218e-09  5.6937124e-07  9.2674637e-07
      1990   1.99           3.5104201e-17  1.0210716e-08 -50372.015      2.2116136e-17  24.885028      21.551066      132.32434     -1.7047814e-07  7.4049914e-08  4.8217012e-08  4.5657293e-07  7.1104612e-07  1.1727785e-06
      2000   2              3.5104201e-17  9.2515343e-09 -50372.015      2.2116136e-17  24.885028      21.551066      132.32434     -2.4009756e-07  1.8845602e-08  2.0794565e-08  4.5181284e-07  7.2910043e-07  1.2051722e-06
      2010   2.01           3.5104201e-17  8.9544303e-09 -50372.015      2.2116136e-17  24.885028      21.551066      132.32434     -4.7053153e-07  6.8062094e-07 -4.6579291e-07  1.9365992e-07  6.5862277e-07  1.0851031e-06
      2020   2.02           3.5104201e-17  9.5535295e-09 -50372.015      2.2116136e-17  24.885028      21.551066      132.32434     -6.3552761e-08  1.6463557e-07 -1.4903236e-07  4.602537e-07   5.4785897e-07  8.9382109e-07
      2030   2.03           3.5104201e-17  1.0505071e-08 -50372.015      2.2116136e-17  24.885028      21.551066      132.32434     -2.2952291e-07  3.8617139e-08  1.0172723e-07  4.4853319e-07  3.6571596e-07  5.7978078e-07
      2040   2.04           3.5104201e-17  1.1494215e-08 -50372.015      2.2116136e-17  24.885028      21.551066      132.32434     -9.9508344e-07  2.5108132e-07  5.5577278e-07  1.6634137e-07  4.9066161e-08  3.242443e-08 
      2050   2.05           3.5104201e-17  1.1748112e-08 -50372.015      2.2116136e-17  24.885028      21.551066      132.32434     -1.483344e-07   2.4465731e-07 -5.0758418e-08  4.127845e-07  -3.1496176e-07 -5.9676889e-07
      2060   2.06           3.5104201e-17  1.1059211e-08 -50372.015      2.2116136e-17  24.885028      21.551066      132.32434     -9.1430014e-08  1.3434424e-07 -9.3359064e-08  4.6118702e-07 -5.8484126e-07 -1.0632773e-06
      2070   2.07           3.5104201e-17  9.8060328e-09 -50372.015      2.2116136e-17  24.885028      21.551066      132.32434     -8.0293495e-07  4.9491611e-07  4.4481114e-07  1.520444e-07  -8.3117229e-07 -1.4899323e-06
      2080   2.08           3.5104201e-17  8.9438297e-09 -50372.015      2.2116136e-17  24.885028      21.551066      132.32434     -1.7587862e-07  6.9002292e-08  1.9206365e-07  4.5631063e-07 -9.3294854e-07 -1.6664858e-06
      2090   2.09           3.5104201e-17  8.7749071e-09 -50372.015      2.2116136e-17  24.885028      21.551066      132.32434     -6.3186647e-08  1.3891602e-07 -9.8021802e-08  4.6898414e-07 -9.5052955e-07 -1.6978893e-06
      2100   2.1            3.5104201e-17  9.0558233e-09 -50372.015      2.2116136e-17  24.885028      21.551066      132.32434     -2.3711896e-07  6.5957023e-07 -4.7236962e-07  2.6826822e-07 -9.048933e-07  -1.6193319e-06
      2110   2.11           3.5104201e-17  9.7012234e-09 -50372.015      2.2116136e-17  24.885028      21.551066      132.32434     -2.1445498e-07  2.4503656e-07  1.9401462e-07  3.9465391e-07 -7.198055e-07  -1.3007506e-06
      2120   2.12           3.5104201e-17  9.7309351e-09 -50372.015      2.2116136e-17  24.885028      21.551066      132.32434     -8.6361518e-08  8.720239e-08   7.3326027e-08  4.7733327e-07 -5.1393476e-07 -9.4571877e-07
      2130   2.13           3.5104201e-17  9.1550756e-09 -50372.015      2.2116136e-17  24.885028      21.551066      132.32434      7.5315594e-09  4.3799159e-07 -2.4588758e-07  4.0329321e-07 -2.9069547e-07 -5.6060084e-07
      2140   2.14           3.5104201e-17  8.0846584e-09 -50372.015      2.2116136e-17  24.885028      21.551066      132.32434     -4.202318e-08   1.0954954e-06  1.8382174e-07  1.990727e-07  -5.3817142e-08 -1.5158191e-07
      2147   2.147          3.5104201e-17  7.5183158e-09 -50372.015      2.2116136e-17  24.885028      21.551066      132.32434     -4.8859727e-08  1.1882836e-07  4.2237179e-08  4.7918304e-07  8.5390566e-08  8.8859346e-08
Loop time of 144.347 on 2 procs for 840 steps with 4875 atoms

98.5% CPU use with 1 MPI tasks x 2 OpenMP threads

Minimization stats:
  Stopping criterion = force tolerance
  Energy initial, next-to-last, final = 
     -50372.0152995378  -50372.0152995383   -50372.015299539
  Force two-norm initial, final = 0.0014816351 9.613047e-09
  Force max component initial, final = 0.0010002469 5.2632787e-09
  Final line search alpha, max atom move = 1 5.2632787e-09
  Iterations, force evaluations = 840 1680

MPI task timing breakdown:
Section |  min time  |  avg time  |  max time  |%varavg| %total
---------------------------------------------------------------
Pair    | 143.8      | 143.8      | 143.8      |   0.0 | 99.62
Neigh   | 0          | 0          | 0          |   0.0 |  0.00
Comm    | 0.10359    | 0.10359    | 0.10359    |   0.0 |  0.07
Output  | 0.0047929  | 0.0047929  | 0.0047929  |   0.0 |  0.00
Modify  | 0          | 0          | 0          |   0.0 |  0.00
Other   |            | 0.4408     |            |       |  0.31

Nlocal:           4875 ave        4875 max        4875 min
Histogram: 1 0 0 0 0 0 0 0 0 0
Nghost:          11117 ave       11117 max       11117 min
Histogram: 1 0 0 0 0 0 0 0 0 0
Neighs:              0 ave           0 max           0 min
Histogram: 1 0 0 0 0 0 0 0 0 0
FullNghs:       553500 ave      553500 max      553500 min
Histogram: 1 0 0 0 0 0 0 0 0 0

Total # of neighbors = 553500
Ave neighs/atom = 113.53846
Neighbor list builds = 0
Dangerous builds = 0
Switching to 'neigh_modify every 1 delay 0 check yes' setting during minimization
Setting up fire style minimization ...
  Unit style    : metal
  Current step  : 2147
  Parameters for fire:
    dmax  delaystep dtgrow dtshrink alpha0 alphashrink tmax tmin   integrator   halfstepback   abcfire  
     0.1     20      1.1     0.5     0.25     0.99      10  0.02 eulerimplicit      yes          no     
Per MPI rank memory allocation (min/avg/max) = 6.778 | 6.778 | 6.778 Mbytes
   Step          Time           Temp          Fnorm          PotEng         KinEng           Lx             Ly             Lz            Pxx            Pyy            Pzz            Pxy            Pxz            Pyz      
      2147   2.147          0              7.5182477e-09 -50372.015      0              24.885028      21.551066      132.32434     -4.9112787e-08  1.1851047e-07  4.2044095e-08  4.7918017e-07  8.5408442e-08  8.8862833e-08
      2148   2.148          6.0481473e-21  7.5059235e-09 -50372.015      3.8104171e-21  24.885028      21.551066      132.32434     -4.8681663e-08  1.1868067e-07  4.0605644e-08  4.792585e-07   8.5365541e-08  8.8828177e-08
Loop time of 0.254033 on 2 procs for 1 steps with 4875 atoms

98.2% CPU use with 1 MPI tasks x 2 OpenMP threads

Minimization stats:
  Stopping criterion = force tolerance
  Energy initial, next-to-last, final = 
      -50372.015299539   -50372.015299539   -50372.015299539
  Force two-norm initial, final = 7.5182477e-09 7.5059235e-09
  Force max component initial, final = 1.4357068e-10 1.4322518e-10
  Final line search alpha, max atom move = 0 0
  Iterations, force evaluations = 1 2

MPI task timing breakdown:
Section |  min time  |  avg time  |  max time  |%varavg| %total
---------------------------------------------------------------
Pair    | 0.25365    | 0.25365    | 0.25365    |   0.0 | 99.85
Neigh   | 0          | 0          | 0          |   0.0 |  0.00
Comm    | 0.00016148 | 0.00016148 | 0.00016148 |   0.0 |  0.06
Output  | 0          | 0          | 0          |   0.0 |  0.00
Modify  | 0          | 0          | 0          |   0.0 |  0.00
Other   |            | 0.0002177  |            |       |  0.09

Nlocal:           4875 ave        4875 max        4875 min
Histogram: 1 0 0 0 0 0 0 0 0 0
Nghost:          11117 ave       11117 max       11117 min
Histogram: 1 0 0 0 0 0 0 0 0 0
Neighs:              0 ave           0 max           0 min
Histogram: 1 0 0 0 0 0 0 0 0 0
FullNghs:       553500 ave      553500 max      553500 min
Histogram: 1 0 0 0 0 0 0 0 0 0

Total # of neighbors = 553500
Ave neighs/atom = 113.53846
Neighbor list builds = 0
Dangerous builds = 0
Switching to 'neigh_modify every 1 delay 0 check yes' setting during minimization
Setting up cg style minimization ...
  Unit style    : metal
  Current step  : 2148
WARNING: Energy due to 3 extra global DOFs will be included in minimizer energies
 (src/min.cpp:219)
Per MPI rank memory allocation (min/avg/max) = 7.903 | 7.903 | 7.903 Mbytes
   Step          Time           Temp          Fnorm          PotEng         KinEng           Lx             Ly             Lz            Pxx            Pyy            Pzz            Pxy            Pxz            Pyz      
      2148   2.148          6.0481473e-21  7.505954e-09  -50372.015      3.8104171e-21  24.885028      21.551066      132.32434     -4.8847756e-08  1.1840279e-07  4.0476106e-08  4.7927147e-07  8.5363475e-08  8.8843179e-08
      2150   2.15           6.0481473e-21  7.4979441e-09 -50372.015      3.8104171e-21  24.885028      21.551066      132.32434      3.3868719e-07 -1.2719095e-07  7.0191071e-08  6.6209667e-07  9.6196529e-08  1.0760666e-07
      2153   2.153          6.0481473e-21  4.3299057e-09 -50372.015      3.8104171e-21  24.885028      21.551066      132.32434      2.9270165e-08 -2.5149019e-08  2.6889518e-09  5.4323011e-07  9.8068124e-09 -3.9504627e-08
Loop time of 0.942239 on 2 procs for 5 steps with 4875 atoms

98.3% CPU use with 1 MPI tasks x 2 OpenMP threads

Minimization stats:
  Stopping criterion = force tolerance
  Energy initial, next-to-last, final = 
      -50372.015299539  -50372.0152995345  -50372.0152995362
  Force two-norm initial, final = 9.5780377e-09 4.6566009e-09
  Force max component initial, final = 5.2444289e-09 1.2964669e-09
  Final line search alpha, max atom move = 1 1.2964669e-09
  Iterations, force evaluations = 5 10

MPI task timing breakdown:
Section |  min time  |  avg time  |  max time  |%varavg| %total
---------------------------------------------------------------
Pair    | 0.9382     | 0.9382     | 0.9382     |   0.0 | 99.57
Neigh   | 0          | 0          | 0          |   0.0 |  0.00
Comm    | 0.00084862 | 0.00084862 | 0.00084862 |   0.0 |  0.09
Output  | 2.9295e-05 | 2.9295e-05 | 2.9295e-05 |   0.0 |  0.00
Modify  | 0          | 0          | 0          |   0.0 |  0.00
Other   |            | 0.003163   |            |       |  0.34

Nlocal:           4875 ave        4875 max        4875 min
Histogram: 1 0 0 0 0 0 0 0 0 0
Nghost:          11117 ave       11117 max       11117 min
Histogram: 1 0 0 0 0 0 0 0 0 0
Neighs:              0 ave           0 max           0 min
Histogram: 1 0 0 0 0 0 0 0 0 0
FullNghs:       553500 ave      553500 max      553500 min
Histogram: 1 0 0 0 0 0 0 0 0 0

Total # of neighbors = 553500
Ave neighs/atom = 113.53846
Neighbor list builds = 0
Dangerous builds = 0
Switching to 'neigh_modify every 1 delay 0 check yes' setting during minimization
Setting up fire style minimization ...
  Unit style    : metal
  Current step  : 2153
  Parameters for fire:
    dmax  delaystep dtgrow dtshrink alpha0 alphashrink tmax tmin   integrator   halfstepback   abcfire  
     0.1     20      1.1     0.5     0.25     0.99      10  0.02 eulerimplicit      yes          no     
Per MPI rank memory allocation (min/avg/max) = 6.778 | 6.778 | 6.778 Mbytes
   Step          Time           Temp          Fnorm          PotEng         KinEng           Lx             Ly             Lz            Pxx            Pyy            Pzz            Pxy            Pxz            Pyz      
      2153   2.153          0              4.3304911e-09 -50372.015      0              24.885028      21.551066      132.32434      2.9204414e-08 -2.5200233e-08  2.8154416e-09  5.4322914e-07  9.8292559e-09 -3.9563129e-08
      2154   2.154          1.11442e-21    4.3275241e-09 -50372.015      7.0210012e-22  24.885028      21.551066      132.32434      2.9293606e-08 -2.52032e-08    3.1428554e-09  5.4324709e-07  9.8335697e-09 -3.9470674e-08
Loop time of 0.253819 on 2 procs for 1 steps with 4875 atoms

100.4% CPU use with 1 MPI tasks x 2 OpenMP threads

Minimization stats:
  Stopping criterion = force tolerance
  Energy initial, next-to-last, final = 
     -50372.0152995362  -50372.0152995362  -50372.0152995362
  Force two-norm initial, final = 4.3304911e-09 4.3275241e-09
  Force max component initial, final = 1.0778844e-10 1.0778939e-10
  Final line search alpha, max atom move = 0 0
  Iterations, force evaluations = 1 2

MPI task timing breakdown:
Section |  min time  |  avg time  |  max time  |%varavg| %total
---------------------------------------------------------------
Pair    | 0.25334    | 0.25334    | 0.25334    |   0.0 | 99.81
Neigh   | 0          | 0          | 0          |   0.0 |  0.00
Comm    | 0.00023959 | 0.00023959 | 0.00023959 |   0.0 |  0.09
Output  | 0          | 0          | 0          |   0.0 |  0.00
Modify  | 0          | 0          | 0          |   0.0 |  0.00
Other   |            | 0.0002391  |            |       |  0.09

Nlocal:           4875 ave        4875 max        4875 min
Histogram: 1 0 0 0 0 0 0 0 0 0
Nghost:          11117 ave       11117 max       11117 min
Histogram: 1 0 0 0 0 0 0 0 0 0
Neighs:              0 ave           0 max           0 min
Histogram: 1 0 0 0 0 0 0 0 0 0
FullNghs:       553500 ave      553500 max      553500 min
Histogram: 1 0 0 0 0 0 0 0 0 0

Total # of neighbors = 553500
Ave neighs/atom = 113.53846
Neighbor list builds = 0
Dangerous builds = 0
Switching to 'neigh_modify every 1 delay 0 check yes' setting during minimization
Setting up cg style minimization ...
  Unit style    : metal
  Current step  : 2154
WARNING: Energy due to 3 extra global DOFs will be included in minimizer energies
 (src/min.cpp:219)
Per MPI rank memory allocation (min/avg/max) = 7.903 | 7.903 | 7.903 Mbytes
   Step          Time           Temp          Fnorm          PotEng         KinEng           Lx             Ly             Lz            Pxx            Pyy            Pzz            Pxy            Pxz            Pyz      
      2154   2.154          1.11442e-21    4.328327e-09  -50372.015      7.0210012e-22  24.885028      21.551066      132.32434      2.9230442e-08 -2.5246393e-08  3.2091282e-09  5.4328736e-07  9.8651595e-09 -3.9520546e-08
      2159   2.159          1.11442e-21    2.5566549e-09 -50372.015      7.0210012e-22  24.885028      21.551066      132.32434     -1.2982213e-08 -7.9342495e-09  2.6594147e-09  5.257562e-07   3.5429451e-08  5.6006443e-09
Loop time of 0.925553 on 2 procs for 5 steps with 4875 atoms

99.8% CPU use with 1 MPI tasks x 2 OpenMP threads

Minimization stats:
  Stopping criterion = force tolerance
  Energy initial, next-to-last, final = 
     -50372.0152995362  -50372.0152995374  -50372.0152995374
  Force two-norm initial, final = 4.6563237e-09 2.6466046e-09
  Force max component initial, final = 1.2947075e-09 5.750227e-10
  Final line search alpha, max atom move = 1 5.750227e-10
  Iterations, force evaluations = 5 10

MPI task timing breakdown:
Section |  min time  |  avg time  |  max time  |%varavg| %total
---------------------------------------------------------------
Pair    | 0.92271    | 0.92271    | 0.92271    |   0.0 | 99.69
Neigh   | 0          | 0          | 0          |   0.0 |  0.00
Comm    | 0.00059464 | 0.00059464 | 0.00059464 |   0.0 |  0.06
Output  | 0          | 0          | 0          |   0.0 |  0.00
Modify  | 0          | 0          | 0          |   0.0 |  0.00
Other   |            | 0.00225    |            |       |  0.24

Nlocal:           4875 ave        4875 max        4875 min
Histogram: 1 0 0 0 0 0 0 0 0 0
Nghost:          11117 ave       11117 max       11117 min
Histogram: 1 0 0 0 0 0 0 0 0 0
Neighs:              0 ave           0 max           0 min
Histogram: 1 0 0 0 0 0 0 0 0 0
FullNghs:       553500 ave      553500 max      553500 min
Histogram: 1 0 0 0 0 0 0 0 0 0

Total # of neighbors = 553500
Ave neighs/atom = 113.53846
Neighbor list builds = 0
Dangerous builds = 0
Switching to 'neigh_modify every 1 delay 0 check yes' setting during minimization
Setting up fire style minimization ...
  Unit style    : metal
  Current step  : 2159
  Parameters for fire:
    dmax  delaystep dtgrow dtshrink alpha0 alphashrink tmax tmin   integrator   halfstepback   abcfire  
     0.1     20      1.1     0.5     0.25     0.99      10  0.02 eulerimplicit      yes          no     
Per MPI rank memory allocation (min/avg/max) = 6.778 | 6.778 | 6.778 Mbytes
   Step          Time           Temp          Fnorm          PotEng         KinEng           Lx             Ly             Lz            Pxx            Pyy            Pzz            Pxy            Pxz            Pyz      
      2159   2.159          0              2.5574495e-09 -50372.015      0              24.885028      21.551066      132.32434     -1.3043873e-08 -8.1172467e-09  2.4883687e-09  5.257624e-07   3.5462703e-08  5.580775e-09 
      2160   2.16           4.4316562e-22  2.5565229e-09 -50372.015      2.7920052e-22  24.885028      21.551066      132.32434     -1.287774e-08  -7.9565075e-09  2.4532973e-09  5.2576791e-07  3.5466606e-08  5.635796e-09 
Loop time of 0.257996 on 2 procs for 1 steps with 4875 atoms

98.2% CPU use with 1 MPI tasks x 2 OpenMP threads

Minimization stats:
  Stopping criterion = force tolerance
  Energy initial, next-to-last, final = 
     -50372.0152995374  -50372.0152995374  -50372.0152995374
  Force two-norm initial, final = 2.5574495e-09 2.5565229e-09
  Force max component initial, final = 6.5541461e-11 6.5550121e-11
  Final line search alpha, max atom move = 0 0
  Iterations, force evaluations = 1 2

MPI task timing breakdown:
Section |  min time  |  avg time  |  max time  |%varavg| %total
---------------------------------------------------------------
Pair    | 0.25754    | 0.25754    | 0.25754    |   0.0 | 99.82
Neigh   | 0          | 0          | 0          |   0.0 |  0.00
Comm    | 0.00021931 | 0.00021931 | 0.00021931 |   0.0 |  0.09
Output  | 0          | 0          | 0          |   0.0 |  0.00
Modify  | 0          | 0          | 0          |   0.0 |  0.00
Other   |            | 0.0002383  |            |       |  0.09

Nlocal:           4875 ave        4875 max        4875 min
Histogram: 1 0 0 0 0 0 0 0 0 0
Nghost:          11117 ave       11117 max       11117 min
Histogram: 1 0 0 0 0 0 0 0 0 0
Neighs:              0 ave           0 max           0 min
Histogram: 1 0 0 0 0 0 0 0 0 0
FullNghs:       553500 ave      553500 max      553500 min
Histogram: 1 0 0 0 0 0 0 0 0 0

Total # of neighbors = 553500
Ave neighs/atom = 113.53846
Neighbor list builds = 0
Dangerous builds = 0
Switching to 'neigh_modify every 1 delay 0 check yes' setting during minimization
Setting up cg style minimization ...
  Unit style    : metal
  Current step  : 2160
WARNING: Energy due to 3 extra global DOFs will be included in minimizer energies
 (src/min.cpp:219)
Per MPI rank memory allocation (min/avg/max) = 7.903 | 7.903 | 7.903 Mbytes
   Step          Time           Temp          Fnorm          PotEng         KinEng           Lx             Ly             Lz            Pxx            Pyy            Pzz            Pxy            Pxz            Pyz      
      2160   2.16           4.4316562e-22  2.5574131e-09 -50372.015      2.7920052e-22  24.885028      21.551066      132.32434     -1.2943672e-08 -8.1197331e-09  2.3059129e-09  5.2576998e-07  3.5486568e-08  5.6397049e-09
      2165   2.165          4.4316562e-22  1.8239288e-09 -50372.015      2.7920052e-22  24.885028      21.551066      132.32434     -9.9152552e-10 -4.0264194e-09  1.3824649e-09  5.2817239e-07  4.4014914e-08  2.0285089e-08
Loop time of 0.943849 on 2 procs for 5 steps with 4875 atoms

98.1% CPU use with 1 MPI tasks x 2 OpenMP threads

Minimization stats:
  Stopping criterion = force tolerance
  Energy initial, next-to-last, final = 
     -50372.0152995374  -50372.0152995366  -50372.0152995371
  Force two-norm initial, final = 2.6474197e-09 1.8341757e-09
  Force max component initial, final = 5.7331562e-10 1.7834267e-10
  Final line search alpha, max atom move = 1 1.7834267e-10
  Iterations, force evaluations = 5 10

MPI task timing breakdown:
Section |  min time  |  avg time  |  max time  |%varavg| %total
---------------------------------------------------------------
Pair    | 0.9397     | 0.9397     | 0.9397     |   0.0 | 99.56
Neigh   | 0          | 0          | 0          |   0.0 |  0.00
Comm    | 0.0008396  | 0.0008396  | 0.0008396  |   0.0 |  0.09
Output  | 0          | 0          | 0          |   0.0 |  0.00
Modify  | 0          | 0          | 0          |   0.0 |  0.00
Other   |            | 0.003313   |            |       |  0.35

Nlocal:           4875 ave        4875 max        4875 min
Histogram: 1 0 0 0 0 0 0 0 0 0
Nghost:          11117 ave       11117 max       11117 min
Histogram: 1 0 0 0 0 0 0 0 0 0
Neighs:              0 ave           0 max           0 min
Histogram: 1 0 0 0 0 0 0 0 0 0
FullNghs:       553500 ave      553500 max      553500 min
Histogram: 1 0 0 0 0 0 0 0 0 0

Total # of neighbors = 553500
Ave neighs/atom = 113.53846
Neighbor list builds = 0
Dangerous builds = 0
Switching to 'neigh_modify every 1 delay 0 check yes' setting during minimization
Setting up fire style minimization ...
  Unit style    : metal
  Current step  : 2165
  Parameters for fire:
    dmax  delaystep dtgrow dtshrink alpha0 alphashrink tmax tmin   integrator   halfstepback   abcfire  
     0.1     20      1.1     0.5     0.25     0.99      10  0.02 eulerimplicit      yes          no     
Per MPI rank memory allocation (min/avg/max) = 6.778 | 6.778 | 6.778 Mbytes
   Step          Time           Temp          Fnorm          PotEng         KinEng           Lx             Ly             Lz            Pxx            Pyy            Pzz            Pxy            Pxz            Pyz      
      2165   2.165          0              1.8237596e-09 -50372.015      0              24.885028      21.551066      132.32434     -9.7141307e-10 -4.0767907e-09  1.589966e-09   5.2816957e-07  4.3994551e-08  2.0289599e-08
      2166   2.166          2.0116918e-22  1.8230968e-09 -50372.015      1.2673939e-22  24.885028      21.551066      132.32434     -9.0690486e-10 -4.1476555e-09  1.456117e-09   5.2817951e-07  4.4008828e-08  2.0345751e-08
Loop time of 0.254476 on 2 procs for 1 steps with 4875 atoms

99.9% CPU use with 1 MPI tasks x 2 OpenMP threads

Minimization stats:
  Stopping criterion = force tolerance
  Energy initial, next-to-last, final = 
     -50372.0152995371  -50372.0152995371  -50372.0152995371
  Force two-norm initial, final = 1.8237596e-09 1.8230968e-09
  Force max component initial, final = 4.4916793e-11 4.4910853e-11
  Final line search alpha, max atom move = 0 0
  Iterations, force evaluations = 1 2

MPI task timing breakdown:
Section |  min time  |  avg time  |  max time  |%varavg| %total
---------------------------------------------------------------
Pair    | 0.25401    | 0.25401    | 0.25401    |   0.0 | 99.82
Neigh   | 0          | 0          | 0          |   0.0 |  0.00
Comm    | 0.00022218 | 0.00022218 | 0.00022218 |   0.0 |  0.09
Output  | 0          | 0          | 0          |   0.0 |  0.00
Modify  | 0          | 0          | 0          |   0.0 |  0.00
Other   |            | 0.0002432  |            |       |  0.10

Nlocal:           4875 ave        4875 max        4875 min
Histogram: 1 0 0 0 0 0 0 0 0 0
Nghost:          11117 ave       11117 max       11117 min
Histogram: 1 0 0 0 0 0 0 0 0 0
Neighs:              0 ave           0 max           0 min
Histogram: 1 0 0 0 0 0 0 0 0 0
FullNghs:       553500 ave      553500 max      553500 min
Histogram: 1 0 0 0 0 0 0 0 0 0

Total # of neighbors = 553500
Ave neighs/atom = 113.53846
Neighbor list builds = 0
Dangerous builds = 0
Switching to 'neigh_modify every 1 delay 0 check yes' setting during minimization
Setting up cg style minimization ...
  Unit style    : metal
  Current step  : 2166
WARNING: Energy due to 3 extra global DOFs will be included in minimizer energies
 (src/min.cpp:219)
Per MPI rank memory allocation (min/avg/max) = 7.903 | 7.903 | 7.903 Mbytes
   Step          Time           Temp          Fnorm          PotEng         KinEng           Lx             Ly             Lz            Pxx            Pyy            Pzz            Pxy            Pxz            Pyz      
      2166   2.166          2.0116918e-22  1.8231629e-09 -50372.015      1.2673939e-22  24.885028      21.551066      132.32434     -8.5605226e-10 -4.1438456e-09  1.5994508e-09  5.2815936e-07  4.3996032e-08  2.0376414e-08
      2170   2.17           2.0116918e-22  1.2039754e-09 -50372.015      1.2673939e-22  24.885028      21.551066      132.32434     -2.5272601e-08 -2.5822776e-08 -2.31628e-08    5.2715898e-07  4.6342574e-08  2.4834044e-08
Loop time of 0.768242 on 2 procs for 4 steps with 4875 atoms

98.9% CPU use with 1 MPI tasks x 2 OpenMP threads

Minimization stats:
  Stopping criterion = force tolerance
  Energy initial, next-to-last, final = 
     -50372.0152995371  -50372.0152995387  -50372.0152995387
  Force two-norm initial, final = 1.8341396e-09 2.2502022e-09
  Force max component initial, final = 1.8354385e-10 1.1437713e-09
  Final line search alpha, max atom move = 1 1.1437713e-09
  Iterations, force evaluations = 4 8

MPI task timing breakdown:
Section |  min time  |  avg time  |  max time  |%varavg| %total
---------------------------------------------------------------
Pair    | 0.76563    | 0.76563    | 0.76563    |   0.0 | 99.66
Neigh   | 0          | 0          | 0          |   0.0 |  0.00
Comm    | 0.00055086 | 0.00055086 | 0.00055086 |   0.0 |  0.07
Output  | 0          | 0          | 0          |   0.0 |  0.00
Modify  | 0          | 0          | 0          |   0.0 |  0.00
Other   |            | 0.002065   |            |       |  0.27

Nlocal:           4875 ave        4875 max        4875 min
Histogram: 1 0 0 0 0 0 0 0 0 0
Nghost:          11117 ave       11117 max       11117 min
Histogram: 1 0 0 0 0 0 0 0 0 0
Neighs:              0 ave           0 max           0 min
Histogram: 1 0 0 0 0 0 0 0 0 0
FullNghs:       553500 ave      553500 max      553500 min
Histogram: 1 0 0 0 0 0 0 0 0 0

Total # of neighbors = 553500
Ave neighs/atom = 113.53846
Neighbor list builds = 0
Dangerous builds = 0
System init for write_data ...
System init for write_data ...
- step: 2170
  atoms: 4875
  temp: 2.0116918135492121042e-22
  press: -2.475272560744335686e-08
  pe: -50372.015299538667023
  ke: 1.2673938990585703462e-22
  etotal: -50372.015299538667023
  vol: 70965.395278306110413
  avecx: 24.88502808826847712
  avecy: 0
  avecz: 0
  bvecx: -12.442514044149689312
  bvecy: 21.551066498330644805
  bvecz: 0
  cvecx: 0
  cvecy: 0
  cvecz: 132.32433615096394419
  lx: 24.88502808826847712
  ly: 21.551066498330644805
  lz: 132.32433615096394419
  cella: 24.88502808826847712
  cellb: 24.885028088276929026
  cellc: 132.32433615096394419
  cellalpha: 90
  cellbeta: 90
  cellgamma: 120.00000000002984279
  pxx: -2.5272601243557864616e-08
  pyy: -2.5822775887853175686e-08
  pzz: -2.3162799690919046822e-08
  pxy: 5.2715898328684429988e-07
  pyz: 2.4834043904350756604e-08
  pxz: 4.6342573644206057119e-08
  xlo: -0.095194627134240303312
  xhi: 24.789833461134236359
  ylo: -0.082440965415325348498
  yhi: 21.468625532915318388
  zlo: 1.5806930087681354546
  zhi: 133.90502915973206655
  xy: -12.442514044149689312
  xz: 0
  yz: 0

[GRACE:debug, proc #0]: Data preparation timer: 2.92591e+07 mcs, graph execution time: 3.20239e+08 mcs, data preparation time fraction: 8.37 %
Total wall time: 0:05:54
