# LAMMPS data file written by OVITO Basic 3.11.1

2 atoms
1 atom types

0.0 3.30985561 xlo xhi
0.0 3.30985561 ylo yhi
0.0 3.30985561 zlo zhi

Masses

1 180.9479  # Ta0+

Atoms  # atomic

1 1 0.0 0.0 0.0
2 1 1.654927805 1.654927805 1.654927805
