
thermo          10
thermo_style    custom step time temp fnorm pe ke lx ly lz pxx pyy pzz pxy pxz pyz

timestep        0.001

min_style       fire
minimize        0.0 1.0e-8 2000 4000

CITE-CITE-CITE-CITE-CITE-CITE-CITE-CITE-CITE-CITE-CITE-CITE-CITE

Your simulation uses code contributions which should be cited:

- Type Label Framework: https://doi.org/10.1021/acs.jpcb.3c08419

@Article{Gissinger24,
 author = {Jacob R. Gissinger, Ilia Nikiforov, Yaser Afshar, Brendon Waters, Moon-ki Choi, Daniel S. Karls, Alexander Stukowski, Wonpil Im, Hendrik Heinz, Axel Kohlmeyer, and Ellad B. Tadmor},
 title = {Type Label Framework for Bonded Force Fields in LAMMPS},
 journal = {J. Phys. Chem. B},
 year =    2024,
 volume =  128,
 number =  13,
 pages =   {3282–-3297}
}

CITE-CITE-CITE-CITE-CITE-CITE-CITE-CITE-CITE-CITE-CITE-CITE-CITE

Switching to 'neigh_modify every 1 delay 0 check yes' setting during minimization
Neighbor list info ...
  update: every = 1 steps, delay = 0 steps, check = yes
  max neighbors/atom: 2000, page size: 100000
  master list distance cutoff = 7.4
  ghost atom cutoff = 7.4
  binsize = 3.7, bins = 2 2 56
  1 neighbor lists, perpetual/occasional/extra = 1 0 0
  (1) pair grace, perpetual
      attributes: full, newton on
      pair build: full/bin/atomonly
      stencil: full/bin/3d
      bin: standard
  Parameters for fire:
    dmax  delaystep dtgrow dtshrink alpha0 alphashrink tmax tmin   integrator   halfstepback   abcfire  
     0.1     20      1.1     0.5     0.25     0.99      10  0.02 eulerimplicit      yes          no     
[GRACE] Atoms padding: new num. of atoms = 327 (incl. 0.917% fake atoms)
[GRACE] Neighbours padding: extending new num. of neighbours = 22495 (incl. 0.991% fake neighbours)
Per MPI rank memory allocation (min/avg/max) = 4.496 | 4.496 | 4.496 Mbytes
   Step          Time           Temp          Fnorm          PotEng         KinEng           Lx             Ly             Lz            Pxx            Pyy            Pzz            Pxy            Pxz            Pyz      
         0   0              0              46.328288     -3164.5333      0              4.8541311      4.2038008      205.55514      177309.85      177309.85      364344.4       1.5102534e-05  1.2620354e-10 -1.5650341e-10
        10   0.01           246.62704      40.485429     -3179.0503      10.296932      4.8541311      4.2038008      205.55514      162214.7       162214.7       358084.78      1.4792708e-05  2.835869e-11  -2.3000775e-10
        20   0.02           757.88453      27.363447     -3207.3895      31.642457      4.8541311      4.2038008      205.55514      133891.19      133891.19      346267.28      1.4129763e-05  5.5567759e-10 -3.472238e-10 
        30   0.070738431    1510.7551      5.0923529     -3236.5688      63.075576      4.8541311      4.2038008      205.55514      113850.83      113850.83      324392.55      1.2704502e-05 -1.0138154e-10 -5.2353971e-11
        40   0.057062334    1.6434977      3.3259022     -3237.8338      0.068617718    4.8541311      4.2038008      205.55514      116921.11      116921.11      266100.4       1.2318719e-05 -3.3850881e-11  6.4619973e-12
        50   0.071327918    7.2306719      2.3790389     -3238.0601      0.30188798     4.8541311      4.2038008      205.55514      117030.83      117030.83      265887.03      1.2325268e-05 -8.8666971e-12  1.7804293e-10
        60   0.16679752     13.688254      1.1728763     -3238.3258      0.57149867     4.8541311      4.2038008      205.55514      117481.13      117481.13      265271.28      1.2326709e-05  6.1972963e-11  1.4990241e-10
        70   0.50473478     15.690988      0.52568078    -3238.6745      0.65511487     4.8541311      4.2038008      205.55514      117696.65      117696.65      263896.36      1.2281989e-05 -4.8942257e-11  8.7064556e-11
        80   0.8            11.384426      0.19170623    -3238.9211      0.47531149     4.8541311      4.2038008      205.55514      117435.5       117435.5       263329.57      1.2285929e-05 -3.2057785e-11  7.7942905e-12
        90   0.9            4.9742427      0.15365662    -3239.0013      0.20767974     4.8541311      4.2038008      205.55514      117433.8       117433.8       262889.51      1.2279022e-05 -6.3680711e-11  3.6074845e-11
       100   1              0.80863727     0.068338465   -3239.0152      0.033761436    4.8541311      4.2038008      205.55514      117411.77      117411.77      262723.73      1.2279206e-05 -1.4187158e-10  1.0341747e-10
       110   0.55           0.00036909818  0.013497273   -3239.0157      1.5410228e-05  4.8541311      4.2038008      205.55514      117411.85      117411.85      262689.13      1.2278297e-05  2.3247501e-11 -1.2514147e-11
       120   0.6            0.0010530248   0.0095433338  -3239.0157      4.3964866e-05  4.8541311      4.2038008      205.55514      117412.3       117412.3       262688.69      1.2278277e-05 -5.4374382e-11  2.0685043e-11
       130   1.1515147      0.0020837323   0.0052556246  -3239.0157      8.6997962e-05  4.8541311      4.2038008      205.55514      117412.55      117412.55      262688.33      1.2278077e-05 -6.4712812e-11  6.6561154e-12
       140   1.4            0.0012056964   0.0017053673  -3239.0158      5.0339063e-05  4.8541311      4.2038008      205.55514      117413.06      117413.06      262687.63      1.2276829e-05 -1.678099e-10   4.0045477e-12
       150   1.5            0.00030886038  0.00097064128 -3239.0158      1.2895238e-05  4.8541311      4.2038008      205.55514      117413.13      117413.13      262687.5       1.2275507e-05 -3.7399304e-11  1.4134264e-11
       160   1.6            5.8418307e-05  0.00037817221 -3239.0158      2.4390243e-06  4.8541311      4.2038008      205.55514      117413.11      117413.11      262687.44      1.2273768e-05  5.7758759e-11 -2.018357e-13 
       170   1.7            6.6782058e-06  0.00014857207 -3239.0158      2.7882195e-07  4.8541311      4.2038008      205.55514      117413.17      117413.17      262687.39      1.2272265e-05  7.7177807e-11 -4.4595784e-11
       180   0.9            4.101098e-09   4.1973256e-05 -3239.0158      1.7122505e-10  4.8541311      4.2038008      205.55514      117413.16      117413.16      262687.38      1.2272305e-05 -5.9794013e-11  8.8906489e-11
       190   0.95           1.2676039e-08  3.2077692e-05 -3239.0158      5.2923765e-10  4.8541311      4.2038008      205.55514      117413.16      117413.16      262687.38      1.2272194e-05 -3.7317887e-12 -3.9693027e-11
       200   2              3.0794542e-08  2.0105592e-05 -3239.0158      1.2857037e-09  4.8541311      4.2038008      205.55514      117413.16      117413.16      262687.38      1.2271806e-05  7.5486526e-12  4.5184741e-11
       210   2.1            3.8544432e-08  1.6801655e-05 -3239.0158      1.6092696e-09  4.8541311      4.2038008      205.55514      117413.16      117413.16      262687.38      1.227101e-05  -1.9252813e-11 -6.723629e-11 
       220   2.2            1.359331e-08   5.2364365e-06 -3239.0158      5.6753466e-10  4.8541311      4.2038008      205.55514      117413.16      117413.16      262687.38      1.2269821e-05  5.5298902e-11  1.0892269e-10
       230   2.3            2.8162982e-09  9.4442708e-06 -3239.0158      1.1758334e-10  4.8541311      4.2038008      205.55514      117413.16      117413.16      262687.38      1.2268147e-05  1.3264913e-10  6.0938796e-11
       240   0.6            9.764823e-14   1.3353548e-06 -3239.0158      4.0769139e-15  4.8541311      4.2038008      205.55514      117413.16      117413.16      262687.38      1.2268309e-05  1.3570273e-10 -6.8445065e-11
       250   0.625          1.3299326e-12  1.0129339e-06 -3239.0158      5.5526052e-14  4.8541311      4.2038008      205.55514      117413.16      117413.16      262687.38      1.2268427e-05 -2.5868333e-11  6.530694e-12 
       260   0.7865         3.4764409e-12  9.7567853e-07 -3239.0158      1.4514498e-13  4.8541311      4.2038008      205.55514      117413.16      117413.16      262687.38      1.2268399e-05 -2.0609852e-11 -4.7623177e-11
       270   2.1184392      1.1336962e-11  9.0335039e-07 -3239.0158      4.7332981e-13  4.8541311      4.2038008      205.55514      117413.16      117413.16      262687.38      1.2268322e-05  9.3295548e-13 -5.922152e-11 
       280   2.8            3.4471374e-11  6.8524098e-07 -3239.0158      1.4392152e-12  4.8541311      4.2038008      205.55514      117413.16      117413.16      262687.38      1.226807e-05  -1.8998381e-11 -7.5060576e-11
       290   2.9            5.9899715e-11  4.1919936e-07 -3239.0158      2.5008746e-12  4.8541311      4.2038008      205.55514      117413.16      117413.16      262687.38      1.2267237e-05 -6.56462e-11    3.8314813e-11
       300   3              4.5541467e-11  6.9022713e-07 -3239.0158      1.901403e-12   4.8541311      4.2038008      205.55514      117413.16      117413.16      262687.38      1.226582e-05  -4.0541183e-11 -3.0327437e-10
       310   0.775          8.0309733e-17  1.0173288e-07 -3239.0158      3.3530138e-18  4.8541311      4.2038008      205.55514      117413.16      117413.16      262687.38      1.2265767e-05 -3.468901e-11   1.2024534e-10
       320   0.8            6.6710662e-15  9.1464705e-08 -3239.0158      2.7852386e-16  4.8541311      4.2038008      205.55514      117413.16      117413.16      262687.38      1.2265764e-05  1.9846524e-11  9.4037751e-11
       330   0.825          2.1716238e-14  8.8587069e-08 -3239.0158      9.0667523e-16  4.8541311      4.2038008      205.55514      117413.16      117413.16      262687.38      1.2265673e-05 -2.2051694e-12  6.2592884e-11
       340   2.2046811      6.7333521e-14  8.5094839e-08 -3239.0158      2.8112437e-15  4.8541311      4.2038008      205.55514      117413.16      117413.16      262687.38      1.2265462e-05  7.9131655e-11 -3.4095311e-11
       350   3.5            2.4249729e-13  7.1105445e-08 -3239.0158      1.0124511e-14  4.8541311      4.2038008      205.55514      117413.16      117413.16      262687.38      1.2265344e-05 -9.8045223e-11 -5.9200316e-11
       360   3.6            4.8408074e-13  4.8129412e-08 -3239.0158      2.0210868e-14  4.8541311      4.2038008      205.55514      117413.16      117413.16      262687.38      1.2264842e-05 -2.9854601e-11 -3.5155489e-11
       370   3.7            6.3034851e-13  6.4827994e-08 -3239.0158      2.6317698e-14  4.8541311      4.2038008      205.55514      117413.16      117413.16      262687.38      1.2263699e-05 -1.9363083e-10 -1.4460822e-10
       380   1.9            2.57935e-18    1.1157746e-08 -3239.0158      1.0769051e-19  4.8541311      4.2038008      205.55514      117413.16      117413.16      262687.38      1.2262733e-05  4.2915988e-11 -1.1674676e-10
       381   1.905          7.7632946e-18  9.9772842e-09 -3239.0158      3.2412552e-19  4.8541311      4.2038008      205.55514      117413.16      117413.16      262687.38      1.2262725e-05  8.7358633e-12 -1.581785e-10 
Loop time of 2.56264 on 2 procs for 381 steps with 324 atoms

103.6% CPU use with 1 MPI tasks x 2 OpenMP threads

Minimization stats:
  Stopping criterion = force tolerance
  Energy initial, next-to-last, final = 
     -3164.53333961035  -3239.01578172919  -3239.01578172919
  Force two-norm initial, final = 46.328288 9.9772842e-09
  Force max component initial, final = 3.6944548 3.3103488e-09
  Final line search alpha, max atom move = 0 0
  Iterations, force evaluations = 381 390

MPI task timing breakdown:
Section |  min time  |  avg time  |  max time  |%varavg| %total
---------------------------------------------------------------
Pair    | 2.5504     | 2.5504     | 2.5504     |   0.0 | 99.52
Neigh   | 0          | 0          | 0          |   0.0 |  0.00
Comm    | 0.0081569  | 0.0081569  | 0.0081569  |   0.0 |  0.32
Output  | 0.00091104 | 0.00091104 | 0.00091104 |   0.0 |  0.04
Modify  | 0          | 0          | 0          |   0.0 |  0.00
Other   |            | 0.003124   |            |       |  0.12

Nlocal:            324 ave         324 max         324 min
Histogram: 1 0 0 0 0 0 0 0 0 0
Nghost:           6930 ave        6930 max        6930 min
Histogram: 1 0 0 0 0 0 0 0 0 0
Neighs:              0 ave           0 max           0 min
Histogram: 1 0 0 0 0 0 0 0 0 0
FullNghs:        41068 ave       41068 max       41068 min
Histogram: 1 0 0 0 0 0 0 0 0 0

Total # of neighbors = 41068
Ave neighs/atom = 126.75309
Neighbor list builds = 0
Dangerous builds = 0

#write_data      fire_${name}.data

fix             3 all box/relax z 0.0 vmax 0.001
min_style       cg
minimize        0.0 1.0e-8 1000 2000
Switching to 'neigh_modify every 1 delay 0 check yes' setting during minimization
WARNING: Energy due to 3 extra global DOFs will be included in minimizer energies
 (src/min.cpp:219)
Per MPI rank memory allocation (min/avg/max) = 5.623 | 5.623 | 5.623 Mbytes
   Step          Time           Temp          Fnorm          PotEng         KinEng           Lx             Ly             Lz            Pxx            Pyy            Pzz            Pxy            Pxz            Pyz      
       381   0.381          7.7632946e-18  9.97738e-09   -3239.0158      3.2412552e-19  4.8541311      4.2038008      205.55514      117413.16      117413.16      262687.38      1.2262704e-05 -6.5306939e-12 -1.4934191e-10
       390   0.39           7.7632946e-18  0.44382572    -3244.714       3.2412552e-19  4.8541311      4.2038008      207.40514      100444         100444         221520.64      1.1697014e-05 -9.1790994e-11 -1.5490256e-10
       400   0.4            7.7632946e-18  0.88433981    -3249.9534      3.2412552e-19  4.8541311      4.2038008      209.46069      82587.987      82587.987      179324.39      1.1125583e-05 -9.1056665e-11 -7.8597758e-11
       410   0.41           7.7632946e-18  1.2783243     -3254.1322      3.2412552e-19  4.8541311      4.2038008      211.51624      65702.43       65702.43       140418.87      1.0612635e-05 -2.0103192e-10 -2.9717427e-10
       420   0.42           7.7632946e-18  1.6337034     -3257.3308      3.2412552e-19  4.8541311      4.2038008      213.5718       49717.547      49717.547      104375.33      1.0154873e-05 -3.7631712e-10 -1.6658767e-10
       430   0.43           7.7632946e-18  1.9565628     -3259.6192      3.2412552e-19  4.8541311      4.2038008      215.62735      34576.542      34576.542      70813.97       9.7486283e-06 -3.3966109e-10  1.4363435e-10
       440   0.44           7.7632946e-18  2.2505421     -3261.058       3.2412552e-19  4.8541311      4.2038008      217.6829       20234.368      20234.368      39424.912      9.3887776e-06 -2.4499212e-10  3.4997373e-10
       450   0.45           7.7632946e-18  2.5159708     -3261.7015      3.2412552e-19  4.8541311      4.2038008      219.73845      6654.9453      6654.9453      9956.9595      9.0705943e-06  1.052442e-10   2.9880346e-10
       460   0.46           7.7632946e-18  1.0579667     -3262.1659      3.2412552e-19  4.8541311      4.2038008      220.85093     -1551.3483     -1551.3483     -2506.7082      8.9214298e-06  1.6724449e-10 -1.5990306e-11
       470   0.47           7.7632946e-18  0.064028754   -3262.2229      3.2412552e-19  4.8541311      4.2038008      220.72367     -1346.6979     -1346.6979      84.510882      9.0177335e-06 -2.2363792e-10 -5.0210173e-11
       480   0.48           7.7632946e-18  0.070377773   -3262.224       3.2412552e-19  4.8541311      4.2038008      220.72749     -1374.9301     -1374.9301      51.5411        8.998324e-06  -5.3148506e-10  9.4277584e-11
       490   0.49           7.7632946e-18  0.01559576    -3262.2243      3.2412552e-19  4.8541311      4.2038008      220.7313      -1402.6201     -1402.6201      6.6045694      9.0099136e-06 -3.2856883e-11  7.8064715e-11
       500   0.5            7.7632946e-18  0.038534944   -3262.2244      3.2412552e-19  4.8541311      4.2038008      220.72928     -1402.7554     -1402.7554      4.1159369      9.006581e-06   4.0666688e-11 -6.589208e-11 
       510   0.51           7.7632946e-18  0.038504855   -3262.2246      3.2412552e-19  4.8541311      4.2038008      220.73604     -1443.2948     -1443.2948     -57.389523      9.0017482e-06  1.646363e-10   6.6630512e-11
       520   0.52           7.7632946e-18  0.020766287   -3262.2247      3.2412552e-19  4.8541311      4.2038008      220.73148     -1403.218      -1403.218       2.4894553      9.0116317e-06 -3.9558549e-10 -2.6187743e-11
       530   0.53           7.7632946e-18  0.017786712   -3262.2247      3.2412552e-19  4.8541311      4.2038008      220.73558     -1438.188      -1438.188      -53.847674      9.008867e-06   3.07198e-10    1.10179e-11  
       540   0.54           7.7632946e-18  0.01388339    -3262.2248      3.2412552e-19  4.8541311      4.2038008      220.73204     -1410.8194     -1410.8194      2.9715276      9.0070192e-06  1.3463576e-10 -2.6141275e-10
       550   0.55           7.7632946e-18  0.016475494   -3262.2248      3.2412552e-19  4.8541311      4.2038008      220.73107     -1408.637      -1408.637       2.3958063      9.0089298e-06 -3.8937619e-10 -1.6073529e-10
       560   0.56           7.7632946e-18  0.013142605   -3262.2248      3.2412552e-19  4.8541311      4.2038008      220.73154     -1410.4611     -1410.4611      1.7100167      9.0029733e-06  9.4811948e-10  5.1783102e-11
       570   0.57           7.7632946e-18  0.0091326099  -3262.2248      3.2412552e-19  4.8541311      4.2038008      220.7318      -1406.9021     -1406.9021      2.1880748      9.0068878e-06 -7.7667651e-10 -1.932707e-10 
       580   0.58           7.7632946e-18  0.003968553   -3262.2248      3.2412552e-19  4.8541311      4.2038008      220.73189     -1411.7968     -1411.7968      0.794911       9.0057473e-06  5.6832976e-10  2.0013224e-10
       590   0.59           7.7632946e-18  0.0060615178  -3262.2248      3.2412552e-19  4.8541311      4.2038008      220.73192     -1409.4985     -1409.4985      1.0431242      9.005602e-06  -1.9014683e-09 -3.6854302e-10
       600   0.6            7.7632946e-18  0.0040663432  -3262.2248      3.2412552e-19  4.8541311      4.2038008      220.73204     -1411.5123     -1411.5123      0.7602237      9.0067986e-06  1.4375825e-09 -2.9474342e-10
       610   0.61           7.7632946e-18  0.0028547287  -3262.2248      3.2412552e-19  4.8541311      4.2038008      220.73191     -1411.2041     -1411.2041      0.50177159     9.0046839e-06 -9.4707139e-10  6.2126785e-10
       620   0.62           7.7632946e-18  0.0041839016  -3262.2249      3.2412552e-19  4.8541311      4.2038008      220.73201     -1411.707      -1411.707       0.68255511     9.008996e-06   1.3674264e-09 -1.641669e-09 
       630   0.63           7.7632946e-18  0.0038850249  -3262.2249      3.2412552e-19  4.8541311      4.2038008      220.73204     -1411.6021     -1411.6021      0.65695482     8.999262e-06  -1.5419186e-09  2.0195365e-09
       640   0.64           7.7632946e-18  0.0030713161  -3262.2249      3.2412552e-19  4.8541311      4.2038008      220.73197     -1410.9821     -1410.9821      0.49964423     9.0126325e-06  5.7384848e-10 -3.7906738e-10
       650   0.65           7.7632946e-18  0.0039200769  -3262.2249      3.2412552e-19  4.8541311      4.2038008      220.7319      -1411.564      -1411.564       0.66014498     8.9930782e-06  2.1749855e-10 -1.2452952e-09
       660   0.66           7.7632946e-18  0.0031196894  -3262.2249      3.2412552e-19  4.8541311      4.2038008      220.73194     -1411.2635     -1411.2635      0.43364158     9.0263999e-06 -3.2544411e-09  5.0743695e-09
       670   0.67           7.7632946e-18  0.003050567   -3262.2249      3.2412552e-19  4.8541311      4.2038008      220.73183     -1409.9078     -1409.9078      0.47183163     8.9786015e-06  4.416456e-09  -6.879191e-09 
       680   0.68           7.7632946e-18  0.0013414941  -3262.2249      3.2412552e-19  4.8541311      4.2038008      220.73189     -1410.8769     -1410.8769      0.21481478     9.0154587e-06 -2.2824613e-09  2.0384344e-09
       690   0.69           7.7632946e-18  0.00098869905 -3262.2249      3.2412552e-19  4.8541311      4.2038008      220.73193     -1410.9467     -1410.9467      0.18439041     9.0028236e-06  1.7206967e-09 -8.8612136e-10
       700   0.7            7.7632946e-18  0.00071653439 -3262.2249      3.2412552e-19  4.8541311      4.2038008      220.73193     -1410.9584     -1410.9584      0.13446761     9.0022356e-06 -1.3502679e-09  1.6222053e-10
       710   0.71           7.7632946e-18  0.0012344731  -3262.2249      3.2412552e-19  4.8541311      4.2038008      220.73188     -1410.7422     -1410.7422      0.23655742     9.0165654e-06  2.7017212e-09 -1.7284373e-10
       720   0.72           7.7632946e-18  0.002212422   -3262.2249      3.2412552e-19  4.8541311      4.2038008      220.73187     -1410.712      -1410.712       0.37924348     8.971006e-06  -2.7189692e-09  7.7397112e-10
       730   0.73           7.7632946e-18  0.00077496252 -3262.2249      3.2412552e-19  4.8541311      4.2038008      220.73194     -1411.1745     -1411.1745      0.13667797     9.0166298e-06 -3.3908244e-10 -6.0313136e-10
       740   0.74           7.7632946e-18  0.00094902232 -3262.2249      3.2412552e-19  4.8541311      4.2038008      220.73196     -1411.0105     -1411.0105      0.1592905      8.9797948e-06  3.8670895e-09  9.7689697e-10
       750   0.75           7.7632946e-18  0.00050097794 -3262.2249      3.2412552e-19  4.8541311      4.2038008      220.73195     -1411.0659     -1411.0659      0.087231069    9.0213419e-06 -2.0740846e-09  2.4545836e-10
       760   0.76           7.7632946e-18  0.00056123765 -3262.2249      3.2412552e-19  4.8541311      4.2038008      220.73195     -1411.3541     -1411.3541      0.10833181     8.9748261e-06  2.0956864e-09 -1.1992382e-09
       770   0.77           7.7632946e-18  0.00054561485 -3262.2249      3.2412552e-19  4.8541311      4.2038008      220.73195     -1411.1976     -1411.1976      0.096567935    9.0343575e-06  9.369713e-10   2.4423759e-09
       780   0.78           7.7632946e-18  0.0004014443  -3262.2249      3.2412552e-19  4.8541311      4.2038008      220.73195     -1411.0687     -1411.0687      0.082190185    8.9758367e-06 -2.9867293e-10 -1.2454134e-09
       790   0.79           7.7632946e-18  0.00029954628 -3262.2249      3.2412552e-19  4.8541311      4.2038008      220.73195     -1411.1368     -1411.1368      0.068445187    9.0173836e-06  2.944671e-10  -1.3537134e-09
       800   0.8            7.7632946e-18  0.00026534131 -3262.2249      3.2412552e-19  4.8541311      4.2038008      220.73194     -1411.1659     -1411.1659      0.074780878    8.9969104e-06 -1.1378637e-09  2.0762765e-09
       810   0.81           7.7632946e-18  0.00042036514 -3262.2249      3.2412552e-19  4.8541311      4.2038008      220.73193     -1411.013      -1411.013       0.13506662     8.9970005e-06  2.3306995e-09 -2.3885543e-09
       820   0.82           7.7632946e-18  0.00035720163 -3262.2249      3.2412552e-19  4.8541311      4.2038008      220.73194     -1411.0174     -1411.0174      0.11315459     9.0357726e-06  1.5200806e-09 -2.5014303e-09
       830   0.83           7.7632946e-18  0.00049885203 -3262.2249      3.2412552e-19  4.8541311      4.2038008      220.73195     -1411.1023     -1411.1023      0.14854652     8.9126912e-06 -4.2739295e-09  6.4443829e-09
       840   0.84           7.7632946e-18  0.00042166895 -3262.2249      3.2412552e-19  4.8541311      4.2038008      220.73194     -1411.0932     -1411.0932      0.12545279     9.0331951e-06 -3.7662883e-10  2.6431943e-09
       850   0.85           7.7632946e-18  0.00039327857 -3262.2249      3.2412552e-19  4.8541311      4.2038008      220.73193     -1411.0685     -1411.0685      0.11086239     9.0886976e-06  4.9659067e-09 -7.0235236e-09
       860   0.86           7.7632946e-18  0.00039243035 -3262.2249      3.2412552e-19  4.8541311      4.2038008      220.73193     -1411.0687     -1411.0687      0.11050372     8.9149291e-06 -1.4217472e-09 -2.5745881e-09
       870   0.87           7.7632946e-18  0.00038988776 -3262.2249      3.2412552e-19  4.8541311      4.2038008      220.73194     -1411.0599     -1411.0599      0.10966114     8.9556627e-06 -6.2006822e-09  5.6492005e-09
       880   0.88           7.7632946e-18  0.00032932044 -3262.2249      3.2412552e-19  4.8541311      4.2038008      220.73194     -1411.0641     -1411.0641      0.087228784    9.1238471e-06 -5.0656518e-10  4.6335327e-09
       890   0.89           7.7632946e-18  0.0002021501  -3262.2249      3.2412552e-19  4.8541311      4.2038008      220.73194     -1411.0765     -1411.0765      0.055126219    9.0283443e-06  2.936447e-09   1.5732359e-10
       900   0.9            7.7632946e-18  0.00013076813 -3262.2249      3.2412552e-19  4.8541311      4.2038008      220.73194     -1411.0777     -1411.0777      0.037484827    8.9448729e-06  1.453202e-09  -1.58767e-09  
       910   0.91           7.7632946e-18  0.00014232556 -3262.2249      3.2412552e-19  4.8541311      4.2038008      220.73194     -1411.0761     -1411.0761      0.045810841    9.0136055e-06 -1.0265574e-09 -2.0739366e-10
       920   0.92           7.7632946e-18  0.00015241014 -3262.2249      3.2412552e-19  4.8541311      4.2038008      220.73194     -1411.0958     -1411.0958      0.051203624    9.0996474e-06 -3.0893279e-09  1.8281179e-09
       930   0.93           7.7632946e-18  0.00017211627 -3262.2249      3.2412552e-19  4.8541311      4.2038008      220.73194     -1411.1031     -1411.1031      0.062774432    8.9801738e-06 -6.6349387e-10  7.2397978e-10
       940   0.94           7.7632946e-18  0.00014331969 -3262.2249      3.2412552e-19  4.8541311      4.2038008      220.73194     -1411.0938     -1411.0938      0.053641748    8.8798832e-06  2.9047256e-09 -1.5713798e-09
       950   0.95           7.7632946e-18  0.00013496523 -3262.2249      3.2412552e-19  4.8541311      4.2038008      220.73194     -1411.0834     -1411.0834      0.055448962    9.0170117e-06  9.4511641e-10 -7.8388318e-10
       960   0.96           7.7632946e-18  0.00018822579 -3262.2249      3.2412552e-19  4.8541311      4.2038008      220.73195     -1411.0887     -1411.0887      0.080347136    9.2041989e-06 -4.7881659e-09  2.260543e-09 
       970   0.97           7.7632946e-18  0.00027276597 -3262.2249      3.2412552e-19  4.8541311      4.2038008      220.73195     -1411.1134     -1411.1134      0.12074421     9.0304867e-06 -6.6390258e-09  3.0337981e-09
       980   0.98           7.7632946e-18  0.00040097185 -3262.2249      3.2412552e-19  4.8541311      4.2038008      220.73194     -1411.1256     -1411.1256      0.16980171     8.5216788e-06  4.3679683e-09 -2.0929862e-09
       990   0.99           7.7632946e-18  0.00035981585 -3262.2249      3.2412552e-19  4.8541311      4.2038008      220.73194     -1411.1025     -1411.1025      0.14482851     8.6534242e-06  1.565469e-08  -5.6170594e-09
      1000   1              7.7632946e-18  0.00028768144 -3262.2249      3.2412552e-19  4.8541311      4.2038008      220.73194     -1411.0581     -1411.0581      0.11159474     9.1759481e-06  1.2656271e-08 -1.8197112e-09
      1010   1.01           7.7632946e-18  0.00021188497 -3262.2249      3.2412552e-19  4.8541311      4.2038008      220.73194     -1411.0416     -1411.0416      0.081577469    9.2799916e-06  3.9073218e-09  2.5246957e-09
      1020   1.02           7.7632946e-18  0.00021297705 -3262.2249      3.2412552e-19  4.8541311      4.2038008      220.73194     -1411.0422     -1411.0422      0.083095722    8.9895266e-06 -4.2002191e-09  3.8284477e-09
      1030   1.03           7.7632946e-18  0.00018413652 -3262.2249      3.2412552e-19  4.8541311      4.2038008      220.73194     -1411.0712     -1411.0712      0.071126394    8.7232584e-06 -7.3624381e-09  1.868019e-09 
      1040   1.04           7.7632946e-18  0.00015090967 -3262.2249      3.2412552e-19  4.8541311      4.2038008      220.73194     -1411.0997     -1411.0997      0.05963029     8.847694e-06  -4.287021e-09  -1.5557215e-09
      1050   1.05           7.7632946e-18  0.00016208735 -3262.2249      3.2412552e-19  4.8541311      4.2038008      220.73194     -1411.1165     -1411.1165      0.064749396    9.1816234e-06  1.8221596e-09 -4.1677571e-09
      1060   1.06           7.7632946e-18  0.00012311456 -3262.2249      3.2412552e-19  4.8541311      4.2038008      220.73195     -1411.1289     -1411.1289      0.049117865    9.2787731e-06  4.4335929e-09 -3.6629986e-09
      1070   1.07           7.7632946e-18  0.00011736101 -3262.2249      3.2412552e-19  4.8541311      4.2038008      220.73195     -1411.1215     -1411.1215      0.048532403    9.0424079e-06  1.5351662e-09 -6.2840579e-10
      1080   1.08           7.7632946e-18  0.00015547753 -3262.2249      3.2412552e-19  4.8541311      4.2038008      220.73195     -1411.0969     -1411.0969      0.064847404    8.6195405e-06 -6.0417787e-09  5.3423773e-09
      1090   1.09           7.7632946e-18  0.00013670435 -3262.2249      3.2412552e-19  4.8541311      4.2038008      220.73194     -1411.09       -1411.09        0.056750462    8.5610714e-06 -1.0223614e-08  8.4308857e-09
      1100   1.1            7.7632946e-18  0.00013462033 -3262.2249      3.2412552e-19  4.8541311      4.2038008      220.73194     -1411.0974     -1411.0974      0.057033069    8.9955455e-06 -5.0152016e-09  4.6798116e-09
      1110   1.11           7.7632946e-18  0.0001686197  -3262.2249      3.2412552e-19  4.8541311      4.2038008      220.73194     -1411.1141     -1411.1141      0.071612806    9.6074594e-06  8.9099749e-09 -5.4644105e-09
      1120   1.12           7.7632946e-18  0.00016436382 -3262.2249      3.2412552e-19  4.8541311      4.2038008      220.73194     -1411.1381     -1411.1381      0.069291635    9.6495808e-06  1.9637489e-08 -1.3214263e-08
      1130   1.13           7.7632946e-18  0.0001491928  -3262.2249      3.2412552e-19  4.8541311      4.2038008      220.73195     -1411.1442     -1411.1442      0.062761437    9.0193699e-06  1.5927821e-08 -1.0437539e-08
      1140   1.14           7.7632946e-18  0.00012386301 -3262.2249      3.2412552e-19  4.8541311      4.2038008      220.73195     -1411.1378     -1411.1378      0.051742697    8.4998268e-06  3.4919617e-09 -1.5480651e-09
      1150   1.15           7.7632946e-18  9.4100625e-05 -3262.2249      3.2412552e-19  4.8541311      4.2038008      220.73195     -1411.1322     -1411.1322      0.039383402    8.5996742e-06 -4.8441941e-09  4.8283186e-09
      1160   1.16           7.7632946e-18  9.1981202e-05 -3262.2249      3.2412552e-19  4.8541311      4.2038008      220.73195     -1411.1265     -1411.1265      0.039048929    9.0695585e-06 -6.8690232e-09  5.8785905e-09
      1170   1.17           7.7632946e-18  0.00010613736 -3262.2249      3.2412552e-19  4.8541311      4.2038008      220.73195     -1411.1226     -1411.1226      0.045372038    9.5534233e-06 -3.2243486e-09  1.9389058e-09
      1180   1.18           7.7632946e-18  0.00011779853 -3262.2249      3.2412552e-19  4.8541311      4.2038008      220.73195     -1411.1244     -1411.1244      0.050449823    9.5283971e-06  2.8174991e-09 -4.6019938e-09
      1190   1.19           7.7632946e-18  0.00012391609 -3262.2249      3.2412552e-19  4.8541311      4.2038008      220.73195     -1411.1303     -1411.1303      0.0530258      8.9113091e-06  6.2111075e-09 -8.6505512e-09
      1200   1.2            7.7632946e-18  0.00011683033 -3262.2249      3.2412552e-19  4.8541311      4.2038008      220.73195     -1411.1375     -1411.1375      0.049833557    8.3865347e-06  4.4120701e-09 -7.2122522e-09
      1210   1.21           7.7632946e-18  0.00011616221 -3262.2249      3.2412552e-19  4.8541311      4.2038008      220.73195     -1411.1389     -1411.1389      0.049584442    8.5165874e-06 -1.3009036e-09 -1.0268091e-09
      1220   1.22           7.7632946e-18  0.00011864796 -3262.2249      3.2412552e-19  4.8541311      4.2038008      220.73195     -1411.1333     -1411.1333      0.050320832    9.1676506e-06 -6.9064611e-09  6.2579937e-09
      1230   1.23           7.7632946e-18  0.00010036119 -3262.2249      3.2412552e-19  4.8541311      4.2038008      220.73195     -1411.127      -1411.127       0.042222844    9.585794e-06  -8.1628383e-09  9.068725e-09 
      1240   1.24           7.7632946e-18  0.00011252334 -3262.2249      3.2412552e-19  4.8541311      4.2038008      220.73195     -1411.114      -1411.114       0.047623021    9.3580505e-06 -3.5636187e-09  5.8118503e-09
      1250   1.25           7.7632946e-18  0.00021163484 -3262.2249      3.2412552e-19  4.8541311      4.2038008      220.73194     -1411.0788     -1411.0788      0.08894521     8.1429814e-06  1.1936907e-08 -8.9914159e-09
      1260   1.26           7.7632946e-18  0.00034514778 -3262.2249      3.2412552e-19  4.8541311      4.2038008      220.73194     -1411.0322     -1411.0322      0.13877929     5.5250421e-06  5.2693748e-08 -4.7932486e-08
      1270   1.27           7.7632946e-18  0.00028699105 -3262.2249      3.2412552e-19  4.8541311      4.2038008      220.73194     -1411.0463     -1411.0463      0.10835979     5.1693431e-06  7.6876551e-08 -7.1042102e-08
      1280   1.28           7.7632946e-18  0.00020848598 -3262.2249      3.2412552e-19  4.8541311      4.2038008      220.73194     -1411.0806     -1411.0806      0.076083561    7.5242095e-06  5.8046126e-08 -5.2434753e-08
      1290   1.29           7.7632946e-18  0.00018471214 -3262.2249      3.2412552e-19  4.8541311      4.2038008      220.73194     -1411.1047     -1411.1047      0.0656034      1.0275064e-05  1.710644e-08  -1.3071379e-08
      1300   1.3            7.7632946e-18  0.00012881503 -3262.2249      3.2412552e-19  4.8541311      4.2038008      220.73195     -1411.1195     -1411.1195      0.044542657    1.1209509e-05 -1.548151e-08   1.7429612e-08
      1310   1.31           7.7632946e-18  8.4974026e-05 -3262.2249      3.2412552e-19  4.8541311      4.2038008      220.73195     -1411.1194     -1411.1194      0.02907681     1.0256128e-05 -1.9946765e-08  2.131936e-08 
      1320   1.32           7.7632946e-18  8.9050298e-05 -3262.2249      3.2412552e-19  4.8541311      4.2038008      220.73194     -1411.1058     -1411.1058      0.0304148      8.5282505e-06 -7.1452356e-09  8.9875506e-09
      1330   1.33           7.7632946e-18  0.00010521014 -3262.2249      3.2412552e-19  4.8541311      4.2038008      220.73194     -1411.0851     -1411.0851      0.03552565     6.6484275e-06  2.0402426e-08 -1.666474e-08 
      1340   1.34           7.7632946e-18  9.5309565e-05 -3262.2249      3.2412552e-19  4.8541311      4.2038008      220.73194     -1411.0766     -1411.0766      0.031797836    6.7314045e-06  3.7709028e-08 -3.3283669e-08
      1350   1.35           7.7632946e-18  8.8892561e-05 -3262.2249      3.2412552e-19  4.8541311      4.2038008      220.73194     -1411.0814     -1411.0814      0.02941983     8.7209505e-06  2.7466961e-08 -2.5156166e-08
      1360   1.36           7.7632946e-18  4.4435907e-05 -3262.2249      3.2412552e-19  4.8541311      4.2038008      220.73192     -1410.9787     -1410.9787      0.33438389     9.3114783e-06 -3.3186049e-09  3.4183206e-09
      1370   1.37           7.7632946e-18  7.3979059e-05 -3262.2249      3.2412552e-19  4.8541311      4.2038008      220.73194     -1411.0825     -1411.0825      0.074503576    7.5657024e-06 -2.7792637e-08  2.7632406e-08
      1380   1.38           7.7632946e-18  7.1723445e-05 -3262.2249      3.2412552e-19  4.8541311      4.2038008      220.73195     -1411.1315     -1411.1315      0.015164997    7.3217103e-06  5.9327628e-09 -1.5006237e-08
      1381   1.381          7.7632946e-18  7.1461014e-05 -3262.2249      3.2412552e-19  4.8541311      4.2038008      220.73195     -1411.1607     -1411.1607     -0.049315266    7.3001562e-06  5.3336397e-09 -1.462825e-08 
Loop time of 12.9625 on 2 procs for 1000 steps with 324 atoms

103.2% CPU use with 1 MPI tasks x 2 OpenMP threads

Minimization stats:
  Stopping criterion = max iterations
  Energy initial, next-to-last, final = 
     -3239.01578172919  -3262.22485564266  -3262.22485564266
  Force two-norm initial, final = 687.7187 0.00014756538
  Force max component initial, final = 687.7187 0.00012910796
  Final line search alpha, max atom move = 1 0.00012910796
  Iterations, force evaluations = 1000 1921

MPI task timing breakdown:
Section |  min time  |  avg time  |  max time  |%varavg| %total
---------------------------------------------------------------
Pair    | 12.785     | 12.785     | 12.785     |   0.0 | 98.63
Neigh   | 0.016385   | 0.016385   | 0.016385   |   0.0 |  0.13
Comm    | 0.040851   | 0.040851   | 0.040851   |   0.0 |  0.32
Output  | 0.0022472  | 0.0022472  | 0.0022472  |   0.0 |  0.02
Modify  | 0          | 0          | 0          |   0.0 |  0.00
Other   |            | 0.1178     |            |       |  0.91

Nlocal:            324 ave         324 max         324 min
Histogram: 1 0 0 0 0 0 0 0 0 0
Nghost:           6880 ave        6880 max        6880 min
Histogram: 1 0 0 0 0 0 0 0 0 0
Neighs:              0 ave           0 max           0 min
Histogram: 1 0 0 0 0 0 0 0 0 0
FullNghs:        39672 ave       39672 max       39672 min
Histogram: 1 0 0 0 0 0 0 0 0 0

Total # of neighbors = 39672
Ave neighs/atom = 122.44444
Neighbor list builds = 19
Dangerous builds = 0
unfix           3
min_style       fire
minimize        0.0 1.0e-8 2000 4000
Switching to 'neigh_modify every 1 delay 0 check yes' setting during minimization
  Parameters for fire:
    dmax  delaystep dtgrow dtshrink alpha0 alphashrink tmax tmin   integrator   halfstepback   abcfire  
     0.1     20      1.1     0.5     0.25     0.99      10  0.02 eulerimplicit      yes          no     
Per MPI rank memory allocation (min/avg/max) = 4.499 | 4.499 | 4.499 Mbytes
   Step          Time           Temp          Fnorm          PotEng         KinEng           Lx             Ly             Lz            Pxx            Pyy            Pzz            Pxy            Pxz            Pyz      
      1381   1.381          0              7.1461014e-05 -3262.2249      0              4.8541311      4.2038008      220.73195     -1411.1607     -1411.1607     -0.049315266    7.3003662e-06  5.2191346e-09 -1.4597792e-08
      1390   1.39           4.2819846e-10  6.7802356e-05 -3262.2249      1.7877725e-11  4.8541311      4.2038008      220.73195     -1411.1606     -1411.1606     -0.048948341    7.4179034e-06  4.67075e-09   -1.4254646e-08
      1400   1.4            1.8191108e-09  5.8709956e-05 -3262.2249      7.5949744e-11  4.8541311      4.2038008      220.73195     -1411.16       -1411.16       -0.047782439    7.7749863e-06  2.3059872e-09 -1.1987941e-08
      1410   3.0224602      4.5265216e-09  4.5704875e-05 -3262.2249      1.8898692e-10  4.8541311      4.2038008      220.73195     -1411.1584     -1411.1584     -0.045295008    8.4904187e-06 -3.5614915e-09 -5.69749e-09  
      1420   7.8950826      1.154472e-08   3.0911026e-05 -3262.2249      4.820039e-10   4.8541311      4.2038008      220.73195     -1411.1531     -1411.1531     -0.040347383    9.1027485e-06 -1.087167e-08   5.5603717e-09
      1430   14.3           2.3598997e-08  9.8470615e-06 -3262.2249      9.8528237e-10  4.8541311      4.2038008      220.73195     -1411.1528     -1411.1528     -0.04400073     8.9919731e-06 -4.4502428e-10  8.2106551e-10
      1440   14.4           6.9048249e-09  3.0904701e-06 -3262.2249      2.8828353e-10  4.8541311      4.2038008      220.73195     -1411.1519     -1411.1519     -0.04891415     8.9838568e-06 -7.8824585e-11  5.0114438e-11
      1450   14.5           1.3955088e-09  1.8815352e-06 -3262.2249      5.8263927e-11  4.8541311      4.2038008      220.73195     -1411.1522     -1411.1522     -0.046668616    9.0015592e-06 -1.8316081e-10 -8.5044465e-11
      1460   14.6           3.3030525e-10  8.5896538e-07 -3262.2249      1.3790583e-11  4.8541311      4.2038008      220.73195     -1411.1523     -1411.1523     -0.046523298    9.0015402e-06 -1.2961061e-10 -1.0830496e-10
      1470   14.7           5.2860124e-11  6.106106e-07  -3262.2249      2.2069645e-12  4.8541311      4.2038008      220.73195     -1411.1522     -1411.1522     -0.045913927    9.0011135e-06 -5.5289442e-13 -1.7772118e-13
      1480   14.8           9.065449e-12   2.7443979e-07 -3262.2249      3.7849181e-13  4.8541311      4.2038008      220.73195     -1411.1522     -1411.1522     -0.046059384    9.0009927e-06  6.1527491e-11  5.2523461e-12
      1490   7.45           2.4722888e-14  1.0545744e-07 -3262.2249      1.032206e-15   4.8541311      4.2038008      220.73195     -1411.1523     -1411.1523     -0.046143511    9.0005871e-06  5.3945156e-11 -1.5283145e-11
      1500   7.5            8.2265308e-14  8.5713394e-08 -3262.2249      3.4346611e-15  4.8541311      4.2038008      220.73195     -1411.1523     -1411.1523     -0.0461301      9.0008218e-06 -4.0834035e-11 -2.1601757e-11
      1510   14.712814      1.8882465e-13  6.3712207e-08 -3262.2249      7.8836229e-15  4.8541311      4.2038008      220.73195     -1411.1523     -1411.1523     -0.046132727    9.0007232e-06 -4.1663352e-11  4.1347422e-11
      1520   15.2           3.4084771e-13  4.037988e-08  -3262.2249      1.4230742e-14  4.8541311      4.2038008      220.73195     -1411.1523     -1411.1523     -0.046137617    9.0006468e-06  5.6077688e-11 -1.1578858e-10
      1530   15.3           4.5900954e-13  2.4834918e-08 -3262.2249      1.916412e-14   4.8541311      4.2038008      220.73195     -1411.1523     -1411.1523     -0.046143464    9.0006582e-06  1.9390244e-11 -8.2536874e-12
      1540   15.4           2.958706e-13   3.1739085e-08 -3262.2249      1.2352901e-14  4.8541311      4.2038008      220.73195     -1411.1522     -1411.1522     -0.04615175     9.000819e-06  -1.206855e-10   4.2571653e-11
      1544   15.44          1.6004689e-13  8.2442821e-09 -3262.2249      6.6821222e-15  4.8541311      4.2038008      220.73195     -1411.1522     -1411.1522     -0.046161529    9.0011757e-06 -1.0188763e-10  3.6411006e-11
Loop time of 1.09575 on 2 procs for 163 steps with 324 atoms

103.3% CPU use with 1 MPI tasks x 2 OpenMP threads

Minimization stats:
  Stopping criterion = force tolerance
  Energy initial, next-to-last, final = 
     -3262.22485564266  -3262.22485564391  -3262.22485564391
  Force two-norm initial, final = 7.1461014e-05 8.2442821e-09
  Force max component initial, final = 1.0175525e-05 1.5422542e-09
  Final line search alpha, max atom move = 0 0
  Iterations, force evaluations = 163 165

MPI task timing breakdown:
Section |  min time  |  avg time  |  max time  |%varavg| %total
---------------------------------------------------------------
Pair    | 1.0909     | 1.0909     | 1.0909     |   0.0 | 99.56
Neigh   | 0          | 0          | 0          |   0.0 |  0.00
Comm    | 0.0032722  | 0.0032722  | 0.0032722  |   0.0 |  0.30
Output  | 0.00026764 | 0.00026764 | 0.00026764 |   0.0 |  0.02
Modify  | 0          | 0          | 0          |   0.0 |  0.00
Other   |            | 0.001331   |            |       |  0.12

Nlocal:            324 ave         324 max         324 min
Histogram: 1 0 0 0 0 0 0 0 0 0
Nghost:           6880 ave        6880 max        6880 min
Histogram: 1 0 0 0 0 0 0 0 0 0
Neighs:              0 ave           0 max           0 min
Histogram: 1 0 0 0 0 0 0 0 0 0
FullNghs:        39768 ave       39768 max       39768 min
Histogram: 1 0 0 0 0 0 0 0 0 0

Total # of neighbors = 39768
Ave neighs/atom = 122.74074
Neighbor list builds = 0
Dangerous builds = 0

fix             3 all box/relax z 0.0 vmax 0.001
min_style       cg
minimize        0.0 1.0e-8 1000 2000
Switching to 'neigh_modify every 1 delay 0 check yes' setting during minimization
WARNING: Energy due to 3 extra global DOFs will be included in minimizer energies
 (src/min.cpp:219)
Per MPI rank memory allocation (min/avg/max) = 5.624 | 5.624 | 5.624 Mbytes
   Step          Time           Temp          Fnorm          PotEng         KinEng           Lx             Ly             Lz            Pxx            Pyy            Pzz            Pxy            Pxz            Pyz      
      1544   1.544          1.6004689e-13  8.2441677e-09 -3262.2249      6.6821222e-15  4.8541311      4.2038008      220.73195     -1411.1522     -1411.1522     -0.046161529    9.0011415e-06 -9.8175444e-11 -8.9191168e-11
      1550   1.55           1.6004689e-13  4.1126293e-08 -3262.2249      6.6821222e-15  4.8541311      4.2038008      220.73195     -1411.1309     -1411.1309      2.9358975e-08  9.0006994e-06 -8.2931696e-13 -5.9631909e-11
      1560   1.56           1.6004689e-13  2.1153848e-08 -3262.2249      6.6821222e-15  4.8541311      4.2038008      220.73195     -1411.1309     -1411.1309     -5.283895e-05   9.0001383e-06  2.5495603e-10 -2.564567e-10 
      1570   1.57           1.6004689e-13  1.4493016e-08 -3262.2249      6.6821222e-15  4.8541311      4.2038008      220.73195     -1411.1309     -1411.1309     -0.00011869566  9.0020638e-06 -1.3074395e-09  8.7427881e-10
      1579   1.579          1.6004689e-13  7.8263788e-09 -3262.2249      6.6821222e-15  4.8541311      4.2038008      220.73195     -1411.1309     -1411.1309      5.9364585e-07  9.0001675e-06 -1.0399252e-09  7.6731654e-10
Loop time of 0.473014 on 2 procs for 35 steps with 324 atoms

105.0% CPU use with 1 MPI tasks x 2 OpenMP threads

Minimization stats:
  Stopping criterion = force tolerance
  Energy initial, next-to-last, final = 
     -3262.22485564391  -3262.22485564391  -3262.22485564392
  Force two-norm initial, final = 0.00012977429 8.0023409e-09
  Force max component initial, final = 0.00012977429 1.6689081e-09
  Final line search alpha, max atom move = 1 1.6689081e-09
  Iterations, force evaluations = 35 70

MPI task timing breakdown:
Section |  min time  |  avg time  |  max time  |%varavg| %total
---------------------------------------------------------------
Pair    | 0.46756    | 0.46756    | 0.46756    |   0.0 | 98.85
Neigh   | 0          | 0          | 0          |   0.0 |  0.00
Comm    | 0.00131    | 0.00131    | 0.00131    |   0.0 |  0.28
Output  | 4.7972e-05 | 4.7972e-05 | 4.7972e-05 |   0.0 |  0.01
Modify  | 0          | 0          | 0          |   0.0 |  0.00
Other   |            | 0.004098   |            |       |  0.87

Nlocal:            324 ave         324 max         324 min
Histogram: 1 0 0 0 0 0 0 0 0 0
Nghost:           6880 ave        6880 max        6880 min
Histogram: 1 0 0 0 0 0 0 0 0 0
Neighs:              0 ave           0 max           0 min
Histogram: 1 0 0 0 0 0 0 0 0 0
FullNghs:        39768 ave       39768 max       39768 min
Histogram: 1 0 0 0 0 0 0 0 0 0

Total # of neighbors = 39768
Ave neighs/atom = 122.74074
Neighbor list builds = 0
Dangerous builds = 0
unfix           3
min_style       fire
minimize        0.0 1.0e-8 2000 4000
Switching to 'neigh_modify every 1 delay 0 check yes' setting during minimization
  Parameters for fire:
    dmax  delaystep dtgrow dtshrink alpha0 alphashrink tmax tmin   integrator   halfstepback   abcfire  
     0.1     20      1.1     0.5     0.25     0.99      10  0.02 eulerimplicit      yes          no     
Per MPI rank memory allocation (min/avg/max) = 4.499 | 4.499 | 4.499 Mbytes
   Step          Time           Temp          Fnorm          PotEng         KinEng           Lx             Ly             Lz            Pxx            Pyy            Pzz            Pxy            Pxz            Pyz      
      1579   1.579          0              7.8266207e-09 -3262.2249      0              4.8541311      4.2038008      220.73195     -1411.1309     -1411.1309      5.9375294e-07  9.000098e-06  -9.661159e-10   7.1660968e-10
      1580   1.58           8.6427761e-20  7.814455e-09  -3262.2249      3.6084478e-21  4.8541311      4.2038008      220.73195     -1411.1309     -1411.1309      5.9328441e-07  9.0000952e-06 -9.6615539e-10  7.3205079e-10
Loop time of 0.0198035 on 2 procs for 1 steps with 324 atoms

107.1% CPU use with 1 MPI tasks x 2 OpenMP threads

Minimization stats:
  Stopping criterion = force tolerance
  Energy initial, next-to-last, final = 
     -3262.22485564392  -3262.22485564392  -3262.22485564392
  Force two-norm initial, final = 7.8266207e-09 7.814455e-09
  Force max component initial, final = 1.0552666e-09 1.0529585e-09
  Final line search alpha, max atom move = 0 0
  Iterations, force evaluations = 1 2

MPI task timing breakdown:
Section |  min time  |  avg time  |  max time  |%varavg| %total
---------------------------------------------------------------
Pair    | 0.019712   | 0.019712   | 0.019712   |   0.0 | 99.54
Neigh   | 0          | 0          | 0          |   0.0 |  0.00
Comm    | 5.6489e-05 | 5.6489e-05 | 5.6489e-05 |   0.0 |  0.29
Output  | 0          | 0          | 0          |   0.0 |  0.00
Modify  | 0          | 0          | 0          |   0.0 |  0.00
Other   |            | 3.464e-05  |            |       |  0.17

Nlocal:            324 ave         324 max         324 min
Histogram: 1 0 0 0 0 0 0 0 0 0
Nghost:           6880 ave        6880 max        6880 min
Histogram: 1 0 0 0 0 0 0 0 0 0
Neighs:              0 ave           0 max           0 min
Histogram: 1 0 0 0 0 0 0 0 0 0
FullNghs:        39768 ave       39768 max       39768 min
Histogram: 1 0 0 0 0 0 0 0 0 0

Total # of neighbors = 39768
Ave neighs/atom = 122.74074
Neighbor list builds = 0
Dangerous builds = 0

fix             3 all box/relax z 0.0 vmax 0.001
min_style       cg
minimize        0.0 1.0e-8 1000 2000
Switching to 'neigh_modify every 1 delay 0 check yes' setting during minimization
WARNING: Energy due to 3 extra global DOFs will be included in minimizer energies
 (src/min.cpp:219)
Per MPI rank memory allocation (min/avg/max) = 5.624 | 5.624 | 5.624 Mbytes
   Step          Time           Temp          Fnorm          PotEng         KinEng           Lx             Ly             Lz            Pxx            Pyy            Pzz            Pxy            Pxz            Pyz      
      1580   1.58           8.6427761e-20  7.8143304e-09 -3262.2249      3.6084478e-21  4.8541311      4.2038008      220.73195     -1411.1309     -1411.1309      5.930849e-07   9.0001142e-06 -9.8459784e-10  7.2954309e-10
      1582   1.582          8.6427761e-20  6.3277534e-09 -3262.2249      3.6084478e-21  4.8541311      4.2038008      220.73195     -1411.1309     -1411.1309      1.075112e-08   9.0011179e-06 -2.5069096e-10  1.9607445e-10
Loop time of 0.0329529 on 2 procs for 2 steps with 324 atoms

105.5% CPU use with 1 MPI tasks x 2 OpenMP threads

Minimization stats:
  Stopping criterion = force tolerance
  Energy initial, next-to-last, final = 
     -3262.22485564392  -3262.22485564391  -3262.22485564391
  Force two-norm initial, final = 7.9902314e-09 6.3278256e-09
  Force max component initial, final = 1.6673445e-09 1.1790809e-09
  Final line search alpha, max atom move = 1 1.1790809e-09
  Iterations, force evaluations = 2 4

MPI task timing breakdown:
Section |  min time  |  avg time  |  max time  |%varavg| %total
---------------------------------------------------------------
Pair    | 0.032597   | 0.032597   | 0.032597   |   0.0 | 98.92
Neigh   | 0          | 0          | 0          |   0.0 |  0.00
Comm    | 9.0676e-05 | 9.0676e-05 | 9.0676e-05 |   0.0 |  0.28
Output  | 0          | 0          | 0          |   0.0 |  0.00
Modify  | 0          | 0          | 0          |   0.0 |  0.00
Other   |            | 0.0002653  |            |       |  0.81

Nlocal:            324 ave         324 max         324 min
Histogram: 1 0 0 0 0 0 0 0 0 0
Nghost:           6880 ave        6880 max        6880 min
Histogram: 1 0 0 0 0 0 0 0 0 0
Neighs:              0 ave           0 max           0 min
Histogram: 1 0 0 0 0 0 0 0 0 0
FullNghs:        39768 ave       39768 max       39768 min
Histogram: 1 0 0 0 0 0 0 0 0 0

Total # of neighbors = 39768
Ave neighs/atom = 122.74074
Neighbor list builds = 0
Dangerous builds = 0
unfix           3
min_style       fire
minimize        0.0 1.0e-8 2000 4000
Switching to 'neigh_modify every 1 delay 0 check yes' setting during minimization
  Parameters for fire:
    dmax  delaystep dtgrow dtshrink alpha0 alphashrink tmax tmin   integrator   halfstepback   abcfire  
     0.1     20      1.1     0.5     0.25     0.99      10  0.02 eulerimplicit      yes          no     
Per MPI rank memory allocation (min/avg/max) = 4.499 | 4.499 | 4.499 Mbytes
   Step          Time           Temp          Fnorm          PotEng         KinEng           Lx             Ly             Lz            Pxx            Pyy            Pzz            Pxy            Pxz            Pyz      
      1582   1.582          0              6.3276893e-09 -3262.2249      0              4.8541311      4.2038008      220.73195     -1411.1309     -1411.1309      1.0579411e-08  9.0010742e-06 -2.1941383e-10  1.7640777e-10
      1583   1.583          5.0409839e-20  6.3190027e-09 -3262.2249      2.1046625e-21  4.8541311      4.2038008      220.73195     -1411.1309     -1411.1309      1.1066734e-08  9.0009867e-06 -2.1514877e-10  1.7297203e-10
Loop time of 0.0194469 on 2 procs for 1 steps with 324 atoms

104.4% CPU use with 1 MPI tasks x 2 OpenMP threads

Minimization stats:
  Stopping criterion = force tolerance
  Energy initial, next-to-last, final = 
     -3262.22485564391  -3262.22485564391  -3262.22485564391
  Force two-norm initial, final = 6.3276893e-09 6.3190027e-09
  Force max component initial, final = 1.1789043e-09 1.1772218e-09
  Final line search alpha, max atom move = 0 0
  Iterations, force evaluations = 1 2

MPI task timing breakdown:
Section |  min time  |  avg time  |  max time  |%varavg| %total
---------------------------------------------------------------
Pair    | 0.019352   | 0.019352   | 0.019352   |   0.0 | 99.51
Neigh   | 0          | 0          | 0          |   0.0 |  0.00
Comm    | 5.7386e-05 | 5.7386e-05 | 5.7386e-05 |   0.0 |  0.30
Output  | 0          | 0          | 0          |   0.0 |  0.00
Modify  | 0          | 0          | 0          |   0.0 |  0.00
Other   |            | 3.75e-05   |            |       |  0.19

Nlocal:            324 ave         324 max         324 min
Histogram: 1 0 0 0 0 0 0 0 0 0
Nghost:           6880 ave        6880 max        6880 min
Histogram: 1 0 0 0 0 0 0 0 0 0
Neighs:              0 ave           0 max           0 min
Histogram: 1 0 0 0 0 0 0 0 0 0
FullNghs:        39768 ave       39768 max       39768 min
Histogram: 1 0 0 0 0 0 0 0 0 0

Total # of neighbors = 39768
Ave neighs/atom = 122.74074
Neighbor list builds = 0
Dangerous builds = 0

fix             3 all box/relax z 0.0 vmax 0.001
min_style       cg
minimize        0.0 1.0e-8 1000 2000
Switching to 'neigh_modify every 1 delay 0 check yes' setting during minimization
WARNING: Energy due to 3 extra global DOFs will be included in minimizer energies
 (src/min.cpp:219)
Per MPI rank memory allocation (min/avg/max) = 5.624 | 5.624 | 5.624 Mbytes
   Step          Time           Temp          Fnorm          PotEng         KinEng           Lx             Ly             Lz            Pxx            Pyy            Pzz            Pxy            Pxz            Pyz      
      1583   1.583          5.0409839e-20  6.3191227e-09 -3262.2249      2.1046625e-21  4.8541311      4.2038008      220.73195     -1411.1309     -1411.1309      1.0907821e-08  9.0010557e-06 -2.4816352e-10  1.7350516e-10
      1585   1.585          5.0409839e-20  5.2407367e-09 -3262.2249      2.1046625e-21  4.8541311      4.2038008      220.73195     -1411.1309     -1411.1309      5.9973935e-07  9.0004839e-06 -9.2844117e-11  8.8381597e-11
Loop time of 0.0326009 on 2 procs for 2 steps with 324 atoms

102.1% CPU use with 1 MPI tasks x 2 OpenMP threads

Minimization stats:
  Stopping criterion = force tolerance
  Energy initial, next-to-last, final = 
     -3262.22485564391  -3262.22485564391  -3262.22485564391
  Force two-norm initial, final = 6.3191971e-09 5.5052786e-09
  Force max component initial, final = 1.1771604e-09 1.6860522e-09
  Final line search alpha, max atom move = 1 1.6860522e-09
  Iterations, force evaluations = 2 4

MPI task timing breakdown:
Section |  min time  |  avg time  |  max time  |%varavg| %total
---------------------------------------------------------------
Pair    | 0.032249   | 0.032249   | 0.032249   |   0.0 | 98.92
Neigh   | 0          | 0          | 0          |   0.0 |  0.00
Comm    | 9.3483e-05 | 9.3483e-05 | 9.3483e-05 |   0.0 |  0.29
Output  | 0          | 0          | 0          |   0.0 |  0.00
Modify  | 0          | 0          | 0          |   0.0 |  0.00
Other   |            | 0.0002587  |            |       |  0.79

Nlocal:            324 ave         324 max         324 min
Histogram: 1 0 0 0 0 0 0 0 0 0
Nghost:           6880 ave        6880 max        6880 min
Histogram: 1 0 0 0 0 0 0 0 0 0
Neighs:              0 ave           0 max           0 min
Histogram: 1 0 0 0 0 0 0 0 0 0
FullNghs:        39768 ave       39768 max       39768 min
Histogram: 1 0 0 0 0 0 0 0 0 0

Total # of neighbors = 39768
Ave neighs/atom = 122.74074
Neighbor list builds = 0
Dangerous builds = 0
unfix           3
min_style       fire
minimize        0.0 1.0e-8 2000 4000
Switching to 'neigh_modify every 1 delay 0 check yes' setting during minimization
  Parameters for fire:
    dmax  delaystep dtgrow dtshrink alpha0 alphashrink tmax tmin   integrator   halfstepback   abcfire  
     0.1     20      1.1     0.5     0.25     0.99      10  0.02 eulerimplicit      yes          no     
Per MPI rank memory allocation (min/avg/max) = 4.499 | 4.499 | 4.499 Mbytes
   Step          Time           Temp          Fnorm          PotEng         KinEng           Lx             Ly             Lz            Pxx            Pyy            Pzz            Pxy            Pxz            Pyz      
      1585   1.585          0              5.2406355e-09 -3262.2249      0              4.8541311      4.2038008      220.73195     -1411.1309     -1411.1309      5.9974172e-07  9.0005136e-06 -9.2449204e-11  2.2123043e-10
      1586   1.586          3.0685507e-20  5.2352498e-09 -3262.2249      1.2811514e-21  4.8541311      4.2038008      220.73195     -1411.1309     -1411.1309      5.9935613e-07  9.0004902e-06 -7.452014e-11   2.0861295e-10
Loop time of 0.0200357 on 2 procs for 1 steps with 324 atoms

107.1% CPU use with 1 MPI tasks x 2 OpenMP threads

Minimization stats:
  Stopping criterion = force tolerance
  Energy initial, next-to-last, final = 
     -3262.22485564392  -3262.22485564392  -3262.22485564391
  Force two-norm initial, final = 5.2406355e-09 5.2352498e-09
  Force max component initial, final = 1.0004361e-09 9.9869174e-10
  Final line search alpha, max atom move = 0 0
  Iterations, force evaluations = 1 2

MPI task timing breakdown:
Section |  min time  |  avg time  |  max time  |%varavg| %total
---------------------------------------------------------------
Pair    | 0.019936   | 0.019936   | 0.019936   |   0.0 | 99.50
Neigh   | 0          | 0          | 0          |   0.0 |  0.00
Comm    | 6.0248e-05 | 6.0248e-05 | 6.0248e-05 |   0.0 |  0.30
Output  | 0          | 0          | 0          |   0.0 |  0.00
Modify  | 0          | 0          | 0          |   0.0 |  0.00
Other   |            | 3.896e-05  |            |       |  0.19

Nlocal:            324 ave         324 max         324 min
Histogram: 1 0 0 0 0 0 0 0 0 0
Nghost:           6880 ave        6880 max        6880 min
Histogram: 1 0 0 0 0 0 0 0 0 0
Neighs:              0 ave           0 max           0 min
Histogram: 1 0 0 0 0 0 0 0 0 0
FullNghs:        39768 ave       39768 max       39768 min
Histogram: 1 0 0 0 0 0 0 0 0 0

Total # of neighbors = 39768
Ave neighs/atom = 122.74074
Neighbor list builds = 0
Dangerous builds = 0

fix             3 all box/relax z 0.0 vmax 0.001
min_style       cg
minimize        0.0 1.0e-8 1000 2000
Switching to 'neigh_modify every 1 delay 0 check yes' setting during minimization
WARNING: Energy due to 3 extra global DOFs will be included in minimizer energies
 (src/min.cpp:219)
Per MPI rank memory allocation (min/avg/max) = 5.624 | 5.624 | 5.624 Mbytes
   Step          Time           Temp          Fnorm          PotEng         KinEng           Lx             Ly             Lz            Pxx            Pyy            Pzz            Pxy            Pxz            Pyz      
      1586   1.586          3.0685507e-20  5.2351791e-09 -3262.2249      1.2811514e-21  4.8541311      4.2038008      220.73195     -1411.1309     -1411.1309      5.9916878e-07  9.0006098e-06 -7.7521481e-11  2.1852528e-10
      1588   1.588          3.0685507e-20  4.8979237e-09 -3262.2249      1.2811514e-21  4.8541311      4.2038008      220.73195     -1411.1309     -1411.1309      9.1983206e-09  9.0005167e-06  1.5796532e-12  1.2816911e-10
Loop time of 0.0333163 on 2 procs for 2 steps with 324 atoms

97.9% CPU use with 1 MPI tasks x 2 OpenMP threads

Minimization stats:
  Stopping criterion = force tolerance
  Energy initial, next-to-last, final = 
     -3262.22485564391  -3262.22485564391  -3262.22485564391
  Force two-norm initial, final = 5.4994969e-09 4.8979919e-09
  Force max component initial, final = 1.6844481e-09 1.0824605e-09
  Final line search alpha, max atom move = 1 1.0824605e-09
  Iterations, force evaluations = 2 4

MPI task timing breakdown:
Section |  min time  |  avg time  |  max time  |%varavg| %total
---------------------------------------------------------------
Pair    | 0.032955   | 0.032955   | 0.032955   |   0.0 | 98.91
Neigh   | 0          | 0          | 0          |   0.0 |  0.00
Comm    | 9.4126e-05 | 9.4126e-05 | 9.4126e-05 |   0.0 |  0.28
Output  | 0          | 0          | 0          |   0.0 |  0.00
Modify  | 0          | 0          | 0          |   0.0 |  0.00
Other   |            | 0.0002676  |            |       |  0.80

Nlocal:            324 ave         324 max         324 min
Histogram: 1 0 0 0 0 0 0 0 0 0
Nghost:           6880 ave        6880 max        6880 min
Histogram: 1 0 0 0 0 0 0 0 0 0
Neighs:              0 ave           0 max           0 min
Histogram: 1 0 0 0 0 0 0 0 0 0
FullNghs:        39768 ave       39768 max       39768 min
Histogram: 1 0 0 0 0 0 0 0 0 0

Total # of neighbors = 39768
Ave neighs/atom = 122.74074
Neighbor list builds = 0
Dangerous builds = 0
unfix           3
min_style       fire
minimize        0.0 1.0e-8 2000 4000
Switching to 'neigh_modify every 1 delay 0 check yes' setting during minimization
  Parameters for fire:
    dmax  delaystep dtgrow dtshrink alpha0 alphashrink tmax tmin   integrator   halfstepback   abcfire  
     0.1     20      1.1     0.5     0.25     0.99      10  0.02 eulerimplicit      yes          no     
Per MPI rank memory allocation (min/avg/max) = 4.499 | 4.499 | 4.499 Mbytes
   Step          Time           Temp          Fnorm          PotEng         KinEng           Lx             Ly             Lz            Pxx            Pyy            Pzz            Pxy            Pxz            Pyz      
      1588   1.588          0              4.8980273e-09 -3262.2249      0              4.8541311      4.2038008      220.73195     -1411.1309     -1411.1309      9.2196459e-09  9.0004733e-06  1.4532809e-11  1.7903395e-10
      1589   1.589          2.5204379e-20  4.8932632e-09 -3262.2249      1.0523087e-21  4.8541311      4.2038008      220.73195     -1411.1309     -1411.1309      9.9584497e-09  9.0004839e-06 -2.2115145e-11  1.6929933e-10
Loop time of 0.0193803 on 2 procs for 1 steps with 324 atoms

104.0% CPU use with 1 MPI tasks x 2 OpenMP threads

Minimization stats:
  Stopping criterion = force tolerance
  Energy initial, next-to-last, final = 
     -3262.22485564391  -3262.22485564391  -3262.22485564391
  Force two-norm initial, final = 4.8980273e-09 4.8932632e-09
  Force max component initial, final = 1.081859e-09 1.0803757e-09
  Final line search alpha, max atom move = 0 0
  Iterations, force evaluations = 1 2

MPI task timing breakdown:
Section |  min time  |  avg time  |  max time  |%varavg| %total
---------------------------------------------------------------
Pair    | 0.019286   | 0.019286   | 0.019286   |   0.0 | 99.51
Neigh   | 0          | 0          | 0          |   0.0 |  0.00
Comm    | 5.8363e-05 | 5.8363e-05 | 5.8363e-05 |   0.0 |  0.30
Output  | 0          | 0          | 0          |   0.0 |  0.00
Modify  | 0          | 0          | 0          |   0.0 |  0.00
Other   |            | 3.613e-05  |            |       |  0.19

Nlocal:            324 ave         324 max         324 min
Histogram: 1 0 0 0 0 0 0 0 0 0
Nghost:           6880 ave        6880 max        6880 min
Histogram: 1 0 0 0 0 0 0 0 0 0
Neighs:              0 ave           0 max           0 min
Histogram: 1 0 0 0 0 0 0 0 0 0
FullNghs:        39768 ave       39768 max       39768 min
Histogram: 1 0 0 0 0 0 0 0 0 0

Total # of neighbors = 39768
Ave neighs/atom = 122.74074
Neighbor list builds = 0
Dangerous builds = 0

fix             3 all box/relax z 0.0 vmax 0.001
min_style       cg
minimize        0.0 1.0e-8 1000 2000
Switching to 'neigh_modify every 1 delay 0 check yes' setting during minimization
WARNING: Energy due to 3 extra global DOFs will be included in minimizer energies
 (src/min.cpp:219)
Per MPI rank memory allocation (min/avg/max) = 5.624 | 5.624 | 5.624 Mbytes
   Step          Time           Temp          Fnorm          PotEng         KinEng           Lx             Ly             Lz            Pxx            Pyy            Pzz            Pxy            Pxz            Pyz      
      1589   1.589          2.5204379e-20  4.8936538e-09 -3262.2249      1.0523087e-21  4.8541311      4.2038008      220.73195     -1411.1309     -1411.1309      9.6897507e-09  9.0004194e-06  1.8442451e-11  1.6260555e-10
      1590   1.59           2.5204379e-20  4.2765599e-09 -3262.2249      1.0523087e-21  4.8541311      4.2038008      220.73195     -1411.1309     -1411.1309     -4.9309789e-06  9.000389e-06  -1.5796532e-12  9.2804626e-11
      1591   1.591          2.5204379e-20  4.3498518e-09 -3262.2249      1.0523087e-21  4.8541311      4.2038008      220.73195     -1411.1309     -1411.1309      4.771908e-07   9.00039e-06    1.5283145e-11  1.4361022e-10
Loop time of 0.0326981 on 2 procs for 2 steps with 324 atoms

104.7% CPU use with 1 MPI tasks x 2 OpenMP threads

Minimization stats:
  Stopping criterion = force tolerance
  Energy initial, next-to-last, final = 
     -3262.22485564391  -3262.22485564392  -3262.22485564391
  Force two-norm initial, final = 4.8937296e-09 4.5520232e-09
  Force max component initial, final = 1.0808031e-09 1.3415304e-09
  Final line search alpha, max atom move = 1 1.3415304e-09
  Iterations, force evaluations = 2 4

MPI task timing breakdown:
Section |  min time  |  avg time  |  max time  |%varavg| %total
---------------------------------------------------------------
Pair    | 0.032329   | 0.032329   | 0.032329   |   0.0 | 98.87
Neigh   | 0          | 0          | 0          |   0.0 |  0.00
Comm    | 9.1865e-05 | 9.1865e-05 | 9.1865e-05 |   0.0 |  0.28
Output  | 1.113e-05  | 1.113e-05  | 1.113e-05  |   0.0 |  0.03
Modify  | 0          | 0          | 0          |   0.0 |  0.00
Other   |            | 0.0002656  |            |       |  0.81

Nlocal:            324 ave         324 max         324 min
Histogram: 1 0 0 0 0 0 0 0 0 0
Nghost:           6880 ave        6880 max        6880 min
Histogram: 1 0 0 0 0 0 0 0 0 0
Neighs:              0 ave           0 max           0 min
Histogram: 1 0 0 0 0 0 0 0 0 0
FullNghs:        39768 ave       39768 max       39768 min
Histogram: 1 0 0 0 0 0 0 0 0 0

Total # of neighbors = 39768
Ave neighs/atom = 122.74074
Neighbor list builds = 0
Dangerous builds = 0
unfix           3
min_style       fire
minimize        0.0 1.0e-8 2000 4000
Switching to 'neigh_modify every 1 delay 0 check yes' setting during minimization
  Parameters for fire:
    dmax  delaystep dtgrow dtshrink alpha0 alphashrink tmax tmin   integrator   halfstepback   abcfire  
     0.1     20      1.1     0.5     0.25     0.99      10  0.02 eulerimplicit      yes          no     
Per MPI rank memory allocation (min/avg/max) = 4.499 | 4.499 | 4.499 Mbytes
   Step          Time           Temp          Fnorm          PotEng         KinEng           Lx             Ly             Lz            Pxx            Pyy            Pzz            Pxy            Pxz            Pyz      
      1591   1.591          0              4.3498843e-09 -3262.2249      0              4.8541311      4.2038008      220.73195     -1411.1309     -1411.1309      4.7714989e-07  9.0004353e-06  2.4524116e-11  1.3723237e-10
      1592   1.592          1.9811168e-20  4.3459603e-09 -3262.2249      8.2713659e-22  4.8541311      4.2038008      220.73195     -1411.1309     -1411.1309      4.7678973e-07  9.0004683e-06  5.2444486e-11  1.3176282e-10
Loop time of 0.0203433 on 2 procs for 1 steps with 324 atoms

98.7% CPU use with 1 MPI tasks x 2 OpenMP threads

Minimization stats:
  Stopping criterion = force tolerance
  Energy initial, next-to-last, final = 
     -3262.22485564391  -3262.22485564391  -3262.22485564391
  Force two-norm initial, final = 4.3498843e-09 4.3459603e-09
  Force max component initial, final = 9.4760955e-10 9.4606933e-10
  Final line search alpha, max atom move = 0 0
  Iterations, force evaluations = 1 2

MPI task timing breakdown:
Section |  min time  |  avg time  |  max time  |%varavg| %total
---------------------------------------------------------------
Pair    | 0.020247   | 0.020247   | 0.020247   |   0.0 | 99.53
Neigh   | 0          | 0          | 0          |   0.0 |  0.00
Comm    | 5.8849e-05 | 5.8849e-05 | 5.8849e-05 |   0.0 |  0.29
Output  | 0          | 0          | 0          |   0.0 |  0.00
Modify  | 0          | 0          | 0          |   0.0 |  0.00
Other   |            | 3.773e-05  |            |       |  0.19

Nlocal:            324 ave         324 max         324 min
Histogram: 1 0 0 0 0 0 0 0 0 0
Nghost:           6880 ave        6880 max        6880 min
Histogram: 1 0 0 0 0 0 0 0 0 0
Neighs:              0 ave           0 max           0 min
Histogram: 1 0 0 0 0 0 0 0 0 0
FullNghs:        39768 ave       39768 max       39768 min
Histogram: 1 0 0 0 0 0 0 0 0 0

Total # of neighbors = 39768
Ave neighs/atom = 122.74074
Neighbor list builds = 0
Dangerous builds = 0


write_data      fire_cg_${name}.data
write_data      fire_cg_lmps.data
System init for write_data ...

write_data      bi_minimised.data
System init for write_data ...

print """- step: $(step)
  atoms: $(atoms)
  temp: $(temp)
  press: $(press)
  pe: $(pe)
  ke: $(ke)
  etotal: $(etotal)
  vol: $(vol)
  avecx: $(avecx)
  avecy: $(avecy)
  avecz: $(avecz)
  bvecx: $(bvecx)
  bvecy: $(bvecy)
  bvecz: $(bvecz)
  cvecx: $(cvecx)
  cvecy: $(cvecy)
  cvecz: $(cvecz)
  lx: $(lx)
  ly: $(ly)
  lz: $(lz)
  cella: $(cella)
  cellb: $(cellb)
  cellc: $(cellc)
  cellalpha: $(cellalpha)
  cellbeta: $(cellbeta)
  cellgamma: $(cellgamma)
  pxx: $(pxx)
  pyy: $(pyy)
  pzz: $(pzz)
  pxy: $(pxy)
  pyz: $(pyz)
  pxz: $(pxz)
  xlo: $(xlo)
  xhi: $(xhi)
  ylo: $(ylo)
  yhi: $(yhi)
  zlo: $(zlo)
  zhi: $(zhi)
  xy: $(xy)
  xz: $(xz)
  yz: $(yz)
""" file bi_minimised.data.yaml screen yes universe no
- step: 1592
  atoms: 324
  temp: 1.9811167619198890011e-20
  press: -940.7539077449243905
  pe: -3262.2248556439126332
  ke: 8.2713659090185595718e-22
  etotal: -3262.2248556439126332
  vol: 4504.2120214105916602
  avecx: 4.8541310641848607332
  avecy: 0
  avecz: 0
  bvecx: -2.4270655321457348386
  bvecy: 4.2038008148832508581
  bvecz: 0
  cvecx: 0
  cvecy: 0
  cvecz: 220.73194847655787498
  lx: 4.8541310641848607332
  ly: 4.2038008148832508581
  lz: 220.73194847655787498
  cella: 4.8541310641848607332
  cellb: 4.8541310642114865459
  cellc: 220.73194847655787498
  cellalpha: 90
  cellbeta: 90
  cellgamma: 120.00000000054507154
  pxx: -1411.130861860927098
  pyy: -1411.130861850635938
  pzz: 4.7678972845023489956e-07
  pxy: 9.0004682635573462156e-06
  pyz: 1.3176282302933968302e-10
  pxz: 5.2444486432778214749e-11
  xlo: 0.00049104455757122676164
  xhi: 4.8546221087424319407
  ylo: 0.00042525705837334908024
  yhi: 4.2042260719416244541
  zlo: -7.5884017428790002668
  zhi: 213.14354673367887472
  xy: -2.4270655321457348386
  xz: 0
  yz: 0

[GRACE:debug, proc #0]: Data preparation timer: 1.24688e+06 mcs, graph execution time: 2.09669e+07 mcs, data preparation time fraction: 5.61 %
Total wall time: 0:00:27
