LAMMPS (29 Aug 2024 - Development - 5b9cae1)
  using 2 OpenMP thread(s) per MPI task
Reading data file ...
  triclinic box = (-8.4703194e-08 2.748583e-06 -0.00035601473) to (4.8541311 27.913513 3888.3211) with tilt (0 0 0)
  1 by 1 by 1 MPI processor grid
  reading atoms ...
  37830 atoms
  reading velocities ...
  37830 velocities
  read_data CPU = 0.242 seconds
Changing box ...
  triclinic box = (-8.4703194e-08 2.748583e-06 -0.00035601473) to (4.8541311 27.913513 3888.3211) with tilt (0 0 0)
[GRACE] TF version: 2.16.2
[GRACE] Neighbour padding is ON, padding fraction: 0.01, max padding fraction before reduction: 0.2, max number of reduction(s): 10
[GRACE] Loading /home/wz300646/GRACE/STATIC_FILES/POTENTIALS/GRACE-2L-OMAT
[GRACE] Model loaded
[GRACE] Mapping LAMMPS atom type #1(Fe) -> ACE species type #24
[GRACE] Mapping LAMMPS atom type #2(Ta) -> ACE species type #73

CITE-CITE-CITE-CITE-CITE-CITE-CITE-CITE-CITE-CITE-CITE-CITE-CITE

Your simulation uses code contributions which should be cited:
- Type Label Framework: https://doi.org/10.1021/acs.jpcb.3c08419
The log file lists these citations in BibTeX format.

CITE-CITE-CITE-CITE-CITE-CITE-CITE-CITE-CITE-CITE-CITE-CITE-CITE

Switching to 'neigh_modify every 1 delay 0 check yes' setting during minimization
Neighbor list info ...
  update: every = 1 steps, delay = 0 steps, check = yes
  max neighbors/atom: 2000, page size: 100000
  master list distance cutoff = 7.4
  ghost atom cutoff = 7.4
  binsize = 3.7, bins = 2 8 1051
  1 neighbor lists, perpetual/occasional/extra = 1 0 0
  (1) pair grace, perpetual
      attributes: full, newton on
      pair build: full/bin/atomonly
      stencil: full/bin/3d
      bin: standard
Setting up fire style minimization ...
  Unit style    : metal
  Current step  : 0
  Parameters for fire:
    dmax  delaystep dtgrow dtshrink alpha0 alphashrink tmax tmin   integrator   halfstepback   abcfire  
     0.1     20      1.1     0.5     0.25     0.99      10  0.02 eulerimplicit      yes          no     
[GRACE] Atoms padding: new num. of atoms = 38208 (incl. 0.989% fake atoms)
[GRACE] Neighbours padding: extending new num. of neighbours = 2433575 (incl. 0.990% fake neighbours)
Per MPI rank memory allocation (min/avg/max) = 77.78 | 77.78 | 77.78 Mbytes
   Step          Time           Temp          Fnorm          PotEng         KinEng           Lx             Ly             Lz            Pxx            Pyy            Pzz            Pxy            Pxz            Pyz      
         0   0              0              4.7989205e-05 -381512.91      0              4.8541312      27.91351       3888.3214      2.1440423e-05  0.00020533468  0.00024327699 -7.2360125e-07  7.1205181e-07 -2.0265531    
        10   0.01           1.8463606e-12  4.4068739e-05 -381512.91      9.0283008e-12  4.8541312      27.91351       3888.3214      6.658971e-05   0.00027355868  0.0003048736  -7.1511346e-07  6.5277377e-07 -2.0265564    
        20   0.02           6.5176207e-12  3.4114418e-05 -381512.91      3.1869745e-11  4.8541312      27.91351       3888.3214      0.0002041743   0.00046769781  0.00048744488 -6.7688937e-07  4.954643e-07  -2.0265665    
        30   0.070738431    1.2694754e-11  1.6267424e-05 -381512.91      6.2074578e-11  4.8541312      27.91351       3888.3214      0.00047883232  0.00086339604  0.00084923128 -5.4392519e-07  1.2474662e-07 -2.0265985    
        40   0.24463636     1.2904032e-11  7.2113261e-06 -381512.91      6.3097903e-11  4.8541312      27.91351       3888.3214      0.00061052405  0.001044444    0.00076087485 -3.2046815e-08  4.6938729e-08 -2.0267111    
        50   0.5            1.8042373e-11  5.9253025e-06 -381512.91      8.8223274e-11  4.8541312      27.91351       3888.3214      0.00057217891  0.0010234817   0.00074602604 -1.5138842e-08 -1.082663e-08  -2.0267266    
        60   0.6            3.5100449e-11  5.8151266e-06 -381512.91      1.7163354e-10  4.8541312      27.91351       3888.3214      0.00059026663  0.0010455973   0.00073810617  2.7365273e-08  4.0132016e-09 -2.0267383    
        70   0.7            6.024942e-11   5.7610389e-06 -381512.91      2.9460653e-10  4.8541312      27.91351       3888.3214      0.00059354241  0.0010468704   0.0007557734  -4.045634e-09   2.1118597e-09 -2.0267292    
        80   0.8            9.3206007e-11  5.7275884e-06 -381512.91      4.5575706e-10  4.8541312      27.91351       3888.3214      0.00059111609  0.0010445349   0.00075429309 -5.2246931e-09  3.7548306e-10 -2.026729     
        90   0.9            1.3399706e-10  5.6913207e-06 -381512.91      6.5521642e-10  4.8541312      27.91351       3888.3214      0.00059227371  0.0010466684   0.00075408503 -5.9775629e-10  5.0712378e-11 -2.0267304    
       100   1              1.8275319e-10  5.6508509e-06 -381512.91      8.9362328e-10  4.8541312      27.91351       3888.3214      0.00059275913  0.0010472099   0.00075379887  7.6159592e-10 -4.358096e-10  -2.0267307    
       110   1.1            2.3947889e-10  5.6046623e-06 -381512.91      1.1709996e-09  4.8541312      27.91351       3888.3214      0.00059282842  0.0010472596   0.00075374516  6.2483745e-10  2.1692974e-10 -2.0267307    
       120   1.2            3.0414572e-10  5.5526674e-06 -381512.91      1.4872063e-09  4.8541312      27.91351       3888.3214      0.00059273254  0.0010471972   0.00075387515  3.5185475e-10 -5.0967642e-11 -2.0267306    
       130   1.3            3.7659887e-10  5.4947629e-06 -381512.91      1.8414864e-09  4.8541312      27.91351       3888.3214      0.00059266455  0.0010470947   0.00075394341  5.9021384e-11  1.4570069e-10 -2.0267305    
       140   1.4            4.5664853e-10  5.430941e-06  -381512.91      2.2329118e-09  4.8541312      27.91351       3888.3214      0.00059262486  0.0010470211   0.00075393072 -1.0043294e-10 -5.8202232e-11 -2.0267305    
       150   1.5            5.4402478e-10  5.3612425e-06 -381512.91      2.6601626e-09  4.8541312      27.91351       3888.3214      0.00059257864  0.0010469875   0.00075392686 -6.6115991e-11  1.0824068e-10 -2.0267305    
       160   1.6            6.3840691e-10  5.2856583e-06 -381512.91      3.1216706e-09  4.8541312      27.91351       3888.3214      0.00059258005  0.0010469858   0.00075390002  3.8497821e-11  3.4426776e-10 -2.0267305    
       170   1.7            7.3941034e-10  5.204278e-06  -381512.91      3.6155554e-09  4.8541312      27.91351       3888.3214      0.0005925837   0.0010470028   0.0007538841  -1.202329e-10  -3.7210549e-10 -2.0267305    
       180   1.8            8.4660212e-10  5.1171722e-06 -381512.91      4.1396998e-09  4.8541312      27.91351       3888.3214      0.00059258738  0.0010470207   0.00075387444 -1.094964e-10  -2.6653069e-10 -2.0267305    
       190   1.9            9.5950387e-10  5.0244644e-06 -381512.91      4.6917648e-09  4.8541312      27.91351       3888.3214      0.00059259487  0.0010470317   0.00075386123  1.6278048e-10  2.8371974e-10 -2.0267305    
       200   2              1.0775974e-09  4.9262569e-06 -381512.91      5.2692166e-09  4.8541312      27.91351       3888.3214      0.00059258964  0.0010470355   0.00075385965  6.261709e-11   1.3840937e-10 -2.0267305    
       210   2.1            1.2003294e-09  4.8226912e-06 -381512.91      5.8693492e-09  4.8541312      27.91351       3888.3214      0.00059257932  0.0010470311   0.0007538629   2.7691797e-12 -4.1396691e-11 -2.0267305    
       220   2.2            1.3271144e-09  4.7139167e-06 -381512.91      6.4893001e-09  4.8541312      27.91351       3888.3214      0.00059256986  0.0010470223   0.00075385698 -1.1401129e-10 -2.1307677e-10 -2.0267305    
       230   2.3            1.4573442e-09  4.6001094e-06 -381512.91      7.1260955e-09  4.8541312      27.91351       3888.3214      0.00059256148  0.0010470192   0.00075384988 -3.092285e-11   9.3747199e-11 -2.0267305    
       240   2.4            1.5903902e-09  4.4814465e-06 -381512.91      7.7766616e-09  4.8541312      27.91351       3888.3214      0.00059256129  0.0010470283   0.00075384534 -3.7665169e-12  1.1081877e-10 -2.0267305    
       250   2.5            1.725608e-09   4.3581322e-06 -381512.91      8.4378471e-09  4.8541312      27.91351       3888.3214      0.00059255945  0.0010470338   0.00075383502  1.8858178e-11 -1.8917745e-11 -2.0267305    
       260   2.6            1.8623436e-09  4.2303785e-06 -381512.91      9.1064541e-09  4.8541312      27.91351       3888.3214      0.00059255111  0.0010470339   0.00075382709 -7.9207853e-11  9.4893742e-11 -2.0267305    
       270   2.7            1.9999357e-09  4.0984224e-06 -381512.91      9.7792494e-09  4.8541312      27.91351       3888.3214      0.00059254929  0.001047037    0.00075382949 -7.4227837e-11  2.5313107e-10 -2.0267305    
       280   2.8            2.1377223e-09  3.962517e-06  -381512.91      1.0452996e-08  4.8541312      27.91351       3888.3214      0.0005925404   0.0010470342   0.00075382313 -5.3646292e-11  1.9750154e-10 -2.0267305    
       290   2.9            2.2750432e-09  3.8229314e-06 -381512.91      1.1124465e-08  4.8541312      27.91351       3888.3214      0.00059253967  0.0010470418   0.00075381741  1.976919e-10   5.4119672e-10 -2.0267305    
       300   3              2.4112425e-09  3.679963e-06  -381512.91      1.179045e-08   4.8541312      27.91351       3888.3214      0.00059253536  0.0010470445   0.00075380779  2.3574827e-11  1.3570302e-10 -2.0267305    
       310   3.1            2.5456732e-09  3.533931e-06  -381512.91      1.2447787e-08  4.8541312      27.91351       3888.3214      0.00059252801  0.0010470443   0.00075380506 -5.1415234e-11  2.0460794e-10 -2.0267305    
       320   3.2            2.6776975e-09  3.3851837e-06 -381512.91      1.3093357e-08  4.8541312      27.91351       3888.3214      0.00059252608  0.0010470473   0.00075380395 -1.0656872e-10  3.3707921e-10 -2.0267305    
       330   3.3            2.8066886e-09  3.2341035e-06 -381512.91      1.3724096e-08  4.8541312      27.91351       3888.3214      0.00059252327  0.0010470516   0.00075379504 -2.6213172e-10 -2.6373105e-10 -2.0267305    
       340   3.4            2.9320316e-09  3.0811167e-06 -381512.91      1.4336995e-08  4.8541312      27.91351       3888.3214      0.00059251753  0.0010470535   0.00075378814 -8.2065789e-11 -3.0790986e-10 -2.0267305    
       350   3.5            3.0531211e-09  2.9266986e-06 -381512.91      1.4929096e-08  4.8541312      27.91351       3888.3214      0.00059251209  0.0010470535   0.00075378682  6.3332373e-11 -4.0282792e-10 -2.0267305    
       360   3.6            3.169359e-09   2.7713848e-06 -381512.91      1.5497475e-08  4.8541312      27.91351       3888.3214      0.00059250969  0.0010470566   0.00075378239  8.0519458e-11 -5.3386285e-11 -2.0267305    
       370   3.7            3.2801497e-09  2.6157885e-06 -381512.91      1.6039217e-08  4.8541312      27.91351       3888.3214      0.00059250721  0.0010470609   0.00075377554 -3.0193853e-11  2.360798e-10  -2.0267305    
       380   3.8            3.3848914e-09  2.4606215e-06 -381512.91      1.6551381e-08  4.8541312      27.91351       3888.3214      0.00059250294  0.0010470609   0.00075377341  1.3726695e-12 -3.1647064e-10 -2.0267305    
       390   3.9            3.4829657e-09  2.3067161e-06 -381512.91      1.7030943e-08  4.8541312      27.91351       3888.3214      0.00059249846  0.0010470615   0.00075377041  3.1207854e-10  5.9535073e-11 -2.0267305    
       400   4              3.5737217e-09  2.1550631e-06 -381512.91      1.747472e-08   4.8541312      27.91351       3888.3214      0.00059249707  0.0010470648   0.00075376263  3.3327401e-10  8.6351897e-10 -2.0267305    
       410   4.1            3.6564552e-09  2.0068517e-06 -381512.91      1.7879269e-08  4.8541312      27.91351       3888.3214      0.00059249292  0.0010470661   0.0007537611   1.1397477e-10  3.1747931e-10 -2.0267305    
       420   4.2            3.7303831e-09  1.8635185e-06 -381512.91      1.824076e-08   4.8541312      27.91351       3888.3214      0.00059248932  0.0010470669   0.00075376015 -5.9274869e-11 -1.0586599e-09 -2.0267305    
       430   4.3            3.7946141e-09  1.7268175e-06 -381512.91      1.8554836e-08  4.8541312      27.91351       3888.3214      0.00059248808  0.0010470695   0.0007537534  -7.1490858e-11 -4.1221914e-10 -2.0267305    
       440   4.4            3.848121e-09   1.598867e-06  -381512.91      1.8816473e-08  4.8541312      27.91351       3888.3214      0.00059248462  0.001047068    0.00075375216  1.4935852e-10  5.3534639e-10 -2.0267305    
       450   4.5            3.8897287e-09  1.4822047e-06 -381512.91      1.9019925e-08  4.8541312      27.91351       3888.3214      0.00059248117  0.0010470678   0.00075375101  3.8813035e-10  1.8513961e-11 -2.0267305    
       460   4.6            3.9181427e-09  1.3797742e-06 -381512.91      1.9158864e-08  4.8541312      27.91351       3888.3214      0.00059248221  0.0010470696   0.0007537446   2.9771055e-10  7.2240457e-10 -2.0267305    
       470   4.7            3.9320582e-09  1.2947838e-06 -381512.91      1.9226907e-08  4.8541312      27.91351       3888.3214      0.00059247993  0.0010470682   0.00075374572  1.3812169e-10  4.2909493e-10 -2.0267305    
       480   4.8            3.930389e-09   1.2304263e-06 -381512.91      1.9218746e-08  4.8541312      27.91351       3888.3214      0.00059247589  0.0010470686   0.00075374401  1.0648466e-11 -7.7908211e-10 -2.0267305    
       490   4.9            3.9126194e-09  1.1893339e-06 -381512.91      1.9131856e-08  4.8541312      27.91351       3888.3214      0.00059247391  0.0010470673   0.00075373913 -4.3622221e-11 -2.7313733e-11 -2.0267305    
       500   5              3.8791784e-09  1.1730272e-06 -381512.91      1.8968337e-08  4.8541312      27.91351       3888.3214      0.00059247236  0.0010470632   0.00075374157 -3.5794936e-11 -6.6621591e-10 -2.0267305    
       510   5.1            3.8316437e-09  1.1814433e-06 -381512.91      1.8735903e-08  4.8541312      27.91351       3888.3214      0.00059247551  0.0010470653   0.00075373812 -1.1615595e-10  1.1974019e-10 -2.0267305    
       520   5.2            3.772602e-09   1.21298e-06   -381512.91      1.8447201e-08  4.8541312      27.91351       3888.3214      0.00059247126  0.0010470595   0.00075373899 -1.6665726e-10 -5.0334914e-10 -2.0267305    
       530   5.3            3.7051942e-09  1.2649075e-06 -381512.91      1.8117592e-08  4.8541312      27.91351       3888.3214      0.00059247371  0.0010470605   0.00075373491 -1.7955239e-10 -3.5569971e-10 -2.0267305    
       540   5.4            3.6325676e-09  1.3339821e-06 -381512.91      1.7762464e-08  4.8541312      27.91351       3888.3214      0.00059247312  0.001047056    0.00075373591  6.806049e-11   6.3151099e-10 -2.0267305    
       550   5.5            3.5574606e-09  1.417002e-06  -381512.91      1.7395207e-08  4.8541312      27.91351       3888.3214      0.00059247195  0.001047054    0.00075373435  7.9850476e-11  4.5419523e-10 -2.0267305    
       560   5.6            3.482012e-09   1.5111069e-06 -381512.91      1.702628e-08   4.8541312      27.91351       3888.3214      0.00059247023  0.0010470526   0.00075373962 -3.6873826e-11 -1.0980186e-10 -2.0267305    
       570   2.85           1.9739485e-14  1.5549792e-06 -381512.91      9.6521777e-14  4.8541312      27.91351       3888.3214      0.00059247177  0.0010469498   0.00075373501 -5.325603e-11   4.4161132e-12 -2.0267305    
       580   2.9            1.1409208e-13  1.5024253e-06 -381512.91      5.578854e-13   4.8541312      27.91351       3888.3214      0.00059247164  0.0010469502   0.00075373488  4.3039548e-11 -3.4883243e-12 -2.0267305    
       590   5.226105       3.4737158e-13  1.4984441e-06 -381512.91      1.6985713e-12  4.8541312      27.91351       3888.3214      0.0005924715   0.0010469502   0.00075373512 -2.5067857e-11 -8.0566382e-11 -2.0267305    
       600   6              1.048629e-12   1.4928296e-06 -381512.91      5.1275673e-12  4.8541312      27.91351       3888.3214      0.00059247114  0.0010469505   0.00075373518 -4.1190051e-12  2.7049031e-11 -2.0267305    
       610   6.1            2.1843236e-12  1.4889931e-06 -381512.91      1.0680866e-11  4.8541312      27.91351       3888.3214      0.00059247158  0.00104695     0.00075373476  7.2416857e-12  9.5396149e-11 -2.0267305    
       620   6.2            3.7891023e-12  1.485149e-06  -381512.91      1.8527884e-11  4.8541312      27.91351       3888.3214      0.00059247122  0.0010469503   0.00075373484 -2.3904744e-11 -2.7271863e-11 -2.0267305    
       630   6.3            5.889343e-12   1.4812733e-06 -381512.91      2.8797603e-11  4.8541312      27.91351       3888.3214      0.0005924714   0.0010469503   0.00075373456 -3.5450111e-11  4.6524496e-11 -2.0267305    
       640   6.4            8.5086845e-12  1.476854e-06  -381512.91      4.1605612e-11  4.8541312      27.91351       3888.3214      0.00059247149  0.00104695     0.00075373443 -6.1573719e-11  4.2306905e-11 -2.0267305    
       650   6.5            1.1661598e-11  1.4718621e-06 -381512.91      5.7022674e-11  4.8541312      27.91351       3888.3214      0.00059247091  0.0010469503   0.00075373447  5.8155615e-11  9.3412275e-11 -2.0267305    
       660   6.6            1.5361104e-11  1.4662336e-06 -381512.91      7.511245e-11   4.8541312      27.91351       3888.3214      0.00059247089  0.0010469502   0.00075373427 -9.0394591e-11  4.9245739e-11 -2.0267305    
       670   6.7            1.9614669e-11  1.4599644e-06 -381512.91      9.5911456e-11  4.8541312      27.91351       3888.3214      0.00059247072  0.0010469506   0.00075373403 -2.468465e-11  -1.0791792e-11 -2.0267305    
       680   6.8            2.4426441e-11  1.4530485e-06 -381512.91      1.1943997e-10  4.8541312      27.91351       3888.3214      0.00059247048  0.0010469508   0.00075373402  6.5208911e-11  8.3672517e-11 -2.0267305    
       690   6.9            2.9797152e-11  1.4455019e-06 -381512.91      1.4570158e-10  4.8541312      27.91351       3888.3214      0.0005924701   0.0010469507   0.00075373338 -5.0334895e-11 -1.067565e-10  -2.0267305    
       700   7              3.5724123e-11  1.4373451e-06 -381512.91      1.7468317e-10  4.8541312      27.91351       3888.3214      0.00059247028  0.0010469505   0.00075373332 -5.0433513e-11  7.1947534e-11 -2.0267305    
       710   7.1            4.2201946e-11  1.4286025e-06 -381512.91      2.0635832e-10  4.8541312      27.91351       3888.3214      0.0005924699   0.001046951    0.00075373296  9.5799937e-11  1.6040619e-10 -2.0267305    
       720   7.2            4.9222468e-11  1.4193075e-06 -381512.91      2.4068714e-10  4.8541312      27.91351       3888.3214      0.00059246958  0.001046951    0.00075373318 -7.6023311e-11  9.6710181e-11 -2.0267305    
       730   7.3            5.6775139e-11  1.4094956e-06 -381512.91      2.7761806e-10  4.8541312      27.91351       3888.3214      0.00059247008  0.001046951    0.00075373219 -4.110162e-11  -2.0320877e-11 -2.0267305    
       740   7.4            6.4847313e-11  1.3992075e-06 -381512.91      3.1708923e-10  4.8541312      27.91351       3888.3214      0.00059246909  0.0010469513   0.00075373221  2.3633616e-11  3.8022735e-10 -2.0267305    
       750   7.5            7.3424379e-11  1.3884877e-06 -381512.91      3.5902921e-10  4.8541312      27.91351       3888.3214      0.00059246915  0.0010469513   0.00075373158 -4.2398333e-12 -2.7816651e-10 -2.0267305    
       760   7.6            8.2490122e-11  1.3773826e-06 -381512.91      4.0335871e-10  4.8541312      27.91351       3888.3214      0.00059246838  0.0010469522   0.00075373134 -5.1949403e-11 -3.1753474e-10 -2.0267305    
       770   7.7            9.2026841e-11  1.3659435e-06 -381512.91      4.4999119e-10  4.8541312      27.91351       3888.3214      0.00059246879  0.0010469517   0.00075373083 -1.7509541e-12  2.0485903e-10 -2.0267305    
       780   7.8            1.0201564e-10  1.3542228e-06 -381512.91      4.9883423e-10  4.8541312      27.91351       3888.3214      0.00059246831  0.0010469515   0.00075373064 -5.1004161e-11  1.6687641e-10 -2.0267305    
       790   7.9            1.124366e-10   1.3422758e-06 -381512.91      5.4979048e-10  4.8541312      27.91351       3888.3214      0.00059246723  0.0010469519   0.00075373045 -1.5085688e-10  2.2867901e-11 -2.0267305    
       800   8              1.2326904e-10  1.3301585e-06 -381512.91      6.0275871e-10  4.8541312      27.91351       3888.3214      0.00059246743  0.0010469521   0.00075372982  5.3369413e-11  3.2673835e-10 -2.0267305    
       810   8.1            1.3449156e-10  1.3179297e-06 -381512.91      6.576344e-10   4.8541312      27.91351       3888.3214      0.00059246685  0.0010469526   0.00075372942  1.2008907e-12  6.7885237e-11 -2.0267305    
       820   8.2            1.460824e-10   1.3056477e-06 -381512.91      7.1431108e-10  4.8541312      27.91351       3888.3214      0.00059246655  0.0010469523   0.00075372846 -8.1282417e-12  2.8602088e-11 -2.0267305    
       830   8.3            1.5801947e-10  1.2933726e-06 -381512.91      7.7268076e-10  4.8541312      27.91351       3888.3214      0.00059246502  0.0010469531   0.00075372914 -9.2465844e-11 -6.111929e-11  -2.0267305    
       840   8.4            1.702806e-10   1.2811638e-06 -381512.91      8.3263502e-10  4.8541312      27.91351       3888.3214      0.00059246614  0.0010469528   0.00075372764 -8.3058861e-12  3.1039738e-10 -2.0267305    
       850   8.5            1.8284367e-10  1.2690798e-06 -381512.91      8.9406568e-10  4.8541312      27.91351       3888.3214      0.0005924652   0.0010469536   0.00075372677 -1.1442676e-10  2.6710054e-11 -2.0267305    
       860   8.6            1.9568669e-10  1.2571794e-06 -381512.91      9.5686526e-10  4.8541312      27.91351       3888.3214      0.00059246561  0.0010469537   0.00075372558 -9.5230784e-11 -1.3935065e-10 -2.0267305    
       870   8.7            2.0878804e-10  1.2455204e-06 -381512.91      1.020928e-09   4.8541312      27.91351       3888.3214      0.00059246386  0.0010469541   0.00075372669  1.1929944e-11 -2.5003303e-10 -2.0267305    
       880   8.8            2.221265e-10   1.2341593e-06 -381512.91      1.0861502e-09  4.8541312      27.91351       3888.3214      0.0005924643   0.0010469539   0.00075372613  5.4979654e-11  7.08901e-11   -2.0267305    
       890   8.9            2.3568147e-10  1.2231483e-06 -381512.91      1.152431e-09   4.8541312      27.91351       3888.3214      0.00059246408  0.0010469544   0.00075372481  5.5383191e-12  4.6595262e-10 -2.0267305    
       900   9              2.4943298e-10  1.2125412e-06 -381512.91      1.2196729e-09  4.8541312      27.91351       3888.3214      0.00059246281  0.0010469542   0.0007537251   1.5822853e-11 -3.1182755e-10 -2.0267305    
       910   9.1            2.6336187e-10  1.2023855e-06 -381512.91      1.2877821e-09  4.8541312      27.91351       3888.3214      0.0005924621   0.0010469545   0.00075372456 -4.2538202e-13 -1.6407954e-10 -2.0267305    
       920   9.2            2.7744984e-10  1.1927294e-06 -381512.91      1.3566692e-09  4.8541312      27.91351       3888.3214      0.00059246276  0.0010469546   0.00075372261 -1.383158e-10   3.3020912e-11 -2.0267305    
       930   9.3            2.9167956e-10  1.1836146e-06 -381512.91      1.4262495e-09  4.8541312      27.91351       3888.3214      0.00059246141  0.0010469548   0.00075372352 -1.008123e-10  -5.4378695e-10 -2.0267305    
       940   9.4            3.0603476e-10  1.1750829e-06 -381512.91      1.4964432e-09  4.8541312      27.91351       3888.3214      0.00059246116  0.0010469556   0.00075372212 -1.7624342e-10 -8.4377472e-11 -2.0267305    
       950   9.5            3.2050027e-10  1.1671691e-06 -381512.91      1.5671765e-09  4.8541312      27.91351       3888.3214      0.00059246104  0.0010469551   0.00075372148 -1.0159697e-10 -1.8534036e-10 -2.0267305    
       960   9.6            3.3506209e-10  1.1599083e-06 -381512.91      1.6383806e-09  4.8541312      27.91351       3888.3214      0.00059245993  0.0010469564   0.00075372136 -9.8834529e-11 -8.1310098e-10 -2.0267305    
       970   9.7            3.4970747e-10  1.1533288e-06 -381512.91      1.7099933e-09  4.8541312      27.91351       3888.3214      0.00059245967  0.0010469558   0.00075371979 -1.4603151e-10 -5.4896208e-11 -2.0267305    
       980   9.8            3.6442488e-10  1.1474539e-06 -381512.91      1.7819582e-09  4.8541312      27.91351       3888.3214      0.00059246045  0.0010469558   0.00075371951 -8.0147082e-11 -9.1962385e-10 -2.0267305    
       990   9.9            3.7920412e-10  1.1423058e-06 -381512.91      1.8542255e-09  4.8541312      27.91351       3888.3214      0.00059245838  0.0010469566   0.00075371887 -1.2406853e-10 -7.9100961e-10 -2.0267305    
      1000   10             3.9403628e-10  1.137903e-06  -381512.91      1.9267515e-09  4.8541312      27.91351       3888.3214      0.00059245701  0.0010469568   0.00075371925 -6.7608313e-11  1.237376e-10  -2.0267305    
      1010   10.1           4.0891375e-10  1.1342556e-06 -381512.91      1.9994991e-09  4.8541312      27.91351       3888.3214      0.00059245713  0.0010469579   0.00075371768  1.3466777e-11  2.6567986e-10 -2.0267305    
      1020   10.2           4.2383026e-10  1.1313694e-06 -381512.91      2.0724376e-09  4.8541312      27.91351       3888.3214      0.00059245601  0.0010469569   0.0007537177   1.7724373e-10  1.7323993e-10 -2.0267305    
      1030   10.3           4.3878084e-10  1.1292491e-06 -381512.91      2.1455427e-09  4.8541312      27.91351       3888.3214      0.00059245592  0.001046958    0.00075371653  5.3430621e-11  4.1581688e-11 -2.0267305    
      1040   10.4           4.537618e-10   1.1278928e-06 -381512.91      2.2187963e-09  4.8541312      27.91351       3888.3214      0.00059245543  0.001046958    0.00075371714 -1.2534711e-10 -3.3285609e-10 -2.0267305    
      1050   10.5           4.6877073e-10  1.1272905e-06 -381512.91      2.2921867e-09  4.8541312      27.91351       3888.3214      0.00059245419  0.0010469585   0.00075371596 -1.39456e-10   -2.3534913e-10 -2.0267305    
      1060   10.6           4.8380638e-10  1.1274344e-06 -381512.91      2.3657077e-09  4.8541312      27.91351       3888.3214      0.00059245445  0.0010469579   0.00075371461  4.3414697e-11  6.7940214e-10 -2.0267305    
      1070   10.7           4.9886867e-10  1.1282991e-06 -381512.91      2.4393591e-09  4.8541312      27.91351       3888.3214      0.00059245428  0.0010469575   0.00075371336  2.4223692e-10  1.2331449e-09 -2.0267305    
      1080   10.8           5.1395869e-10  1.1298644e-06 -381512.91      2.513146e-09   4.8541312      27.91351       3888.3214      0.00059245363  0.0010469591   0.00075371196  1.517416e-11   2.6406871e-10 -2.0267305    
      1090   10.9           5.2907848e-10  1.1321066e-06 -381512.91      2.5870784e-09  4.8541312      27.91351       3888.3214      0.00059245155  0.0010469587   0.00075371326 -7.9806488e-11 -1.8543219e-10 -2.0267305    
      1100   11             5.4423107e-10  1.134986e-06  -381512.91      2.6611713e-09  4.8541312      27.91351       3888.3214      0.00059245326  0.0010469593   0.00075371083  9.2529733e-11  5.1267698e-10 -2.0267305    
      1110   11.1           5.5942037e-10  1.1384668e-06 -381512.91      2.7354437e-09  4.8541312      27.91351       3888.3214      0.00059245167  0.0010469597   0.00075371083 -6.4345093e-12 -1.4311448e-10 -2.0267305    
      1120   11.2           5.7465106e-10  1.142513e-06  -381512.91      2.8099184e-09  4.8541312      27.91351       3888.3214      0.00059245017  0.0010469591   0.00075371087 -2.1038652e-11 -1.5107834e-10 -2.0267305    
      1130   11.3           5.8992847e-10  1.1470753e-06 -381512.91      2.8846216e-09  4.8541312      27.91351       3888.3214      0.00059245062  0.0010469607   0.0007537082  -6.3423277e-12  5.0746678e-10 -2.0267305    
      1140   11.4           6.0525855e-10  1.1521037e-06 -381512.91      2.9595824e-09  4.8541312      27.91351       3888.3214      0.00059244882  0.0010469592   0.00075371014  2.5922715e-11  4.1738344e-11 -2.0267305    
      1150   11.5           6.2064767e-10  1.1575603e-06 -381512.91      3.0348318e-09  4.8541312      27.91351       3888.3214      0.00059244925  0.0010469608   0.00075370761  1.7682277e-10  1.1242952e-09 -2.0267305    
      1160   11.6           6.361026e-10   1.1633827e-06 -381512.91      3.1104031e-09  4.8541312      27.91351       3888.3214      0.00059244775  0.0010469608   0.00075370679  9.7892172e-11  8.4001496e-10 -2.0267305    
      1170   11.7           6.5163039e-10  1.1695316e-06 -381512.91      3.1863305e-09  4.8541312      27.91351       3888.3214      0.00059244656  0.0010469603   0.00075370788  3.5217459e-11  4.3958153e-10 -2.0267305    
      1180   11.8           6.672382e-10   1.1759527e-06 -381512.91      3.2626494e-09  4.8541312      27.91351       3888.3214      0.000592449    0.0010469616   0.00075370528  1.8399423e-10  1.1488849e-09 -2.0267305    
      1190   11.9           6.8293337e-10  1.1825949e-06 -381512.91      3.3393953e-09  4.8541312      27.91351       3888.3214      0.00059244498  0.0010469622   0.00075370612 -4.4453502e-11 -3.1560624e-10 -2.0267305    
      1200   12             6.9872315e-10  1.1894219e-06 -381512.91      3.4166039e-09  4.8541312      27.91351       3888.3214      0.00059244605  0.001046961    0.00075370415  2.9915121e-13 -1.4089292e-10 -2.0267305    
      1210   12.1           7.1461481e-10  1.1963754e-06 -381512.91      3.4943107e-09  4.8541312      27.91351       3888.3214      0.00059244401  0.0010469628   0.00075370422 -2.0894731e-10 -1.0595755e-09 -2.0267305    
      1220   12.2           7.3061546e-10  1.2034242e-06 -381512.91      3.5725503e-09  4.8541312      27.91351       3888.3214      0.00059244582  0.001046961    0.00075370139 -3.0314157e-11 -2.8015309e-10 -2.0267305    
      1230   12.3           7.4673204e-10  1.2105218e-06 -381512.91      3.6513569e-09  4.8541312      27.91351       3888.3214      0.00059244069  0.0010469629   0.00075370342 -1.0406903e-10 -6.9238308e-10 -2.0267305    
      1240   12.4           7.629713e-10   1.2176344e-06 -381512.91      3.7307633e-09  4.8541312      27.91351       3888.3214      0.00059244631  0.0010469626   0.00075369968  1.1065334e-10  9.1269311e-10 -2.0267305    
      1250   12.5           7.7933975e-10  1.2247324e-06 -381512.91      3.8108015e-09  4.8541312      27.91351       3888.3214      0.00059244074  0.0010469634   0.00075370092  9.9811573e-11  2.4396527e-10 -2.0267305    
      1260   12.6           7.9584363e-10  1.2317771e-06 -381512.91      3.8915019e-09  4.8541312      27.91351       3888.3214      0.00059244226  0.0010469612   0.00075369862  3.0461658e-10  1.5292217e-09 -2.0267305    
      1270   12.7           8.1248894e-10  1.2387549e-06 -381512.91      3.9728938e-09  4.8541312      27.91351       3888.3214      0.00059244025  0.0010469647   0.00075369935 -2.3386156e-10 -9.7746143e-10 -2.0267305    
      1280   12.8           8.2928135e-10  1.2456157e-06 -381512.91      4.0550051e-09  4.8541312      27.91351       3888.3214      0.0005924405   0.001046964    0.00075369704 -5.7290298e-11 -1.3770035e-10 -2.0267305    
      1290   12.9           8.462263e-10   1.2523632e-06 -381512.91      4.1378621e-09  4.8541312      27.91351       3888.3214      0.00059243732  0.0010469631   0.00075369773 -2.5550791e-10 -1.4567583e-09 -2.0267305    
      1300   13             8.6332889e-10  1.2589385e-06 -381512.91      4.2214901e-09  4.8541312      27.91351       3888.3214      0.00059244032  0.0010469639   0.00075369573 -1.0936262e-10 -9.9222097e-11 -2.0267305    
      1310   13.1           8.8059398e-10  1.2653645e-06 -381512.91      4.3059126e-09  4.8541312      27.91351       3888.3214      0.00059243772  0.001046965    0.0007536947   2.0762754e-10  6.042904e-10  -2.0267305    
      1320   13.2           8.9802612e-10  1.2715848e-06 -381512.91      4.391152e-09   4.8541312      27.91351       3888.3214      0.00059243577  0.0010469645   0.00075369473  2.33189e-10    1.1206988e-09 -2.0267305    
      1330   13.3           9.1562962e-10  1.2776221e-06 -381512.91      4.4772293e-09  4.8541312      27.91351       3888.3214      0.0005924384   0.0010469634   0.00075369326  1.4114172e-10  4.9179971e-10 -2.0267305    
      1340   13.4           9.334085e-10   1.2834224e-06 -381512.91      4.5641641e-09  4.8541312      27.91351       3888.3214      0.00059243316  0.0010469675   0.0007536921  -1.8687653e-10 -5.89647e-10   -2.0267305    
      1350   13.5           9.5136652e-10  1.289e-06     -381512.91      4.6519749e-09  4.8541312      27.91351       3888.3214      0.00059243696  0.0010469635   0.00075369148 -1.2039581e-10 -8.1107389e-10 -2.0267305    
      1360   13.6           9.6950719e-10  1.2943141e-06 -381512.91      4.7406789e-09  4.8541312      27.91351       3888.3214      0.00059243321  0.0010469658   0.00075369149 -3.1196025e-10 -1.0391884e-09 -2.0267305    
      1370   13.7           9.878338e-10   1.2993741e-06 -381512.91      4.830292e-09   4.8541312      27.91351       3888.3214      0.00059243396  0.001046966    0.00075368816  4.8700544e-10  1.5223126e-09 -2.0267305    
      1380   13.8           1.0063494e-09  1.3041629e-06 -381512.91      4.920829e-09   4.8541312      27.91351       3888.3214      0.00059243224  0.001046967    0.00075368958  1.3871928e-10  1.0240237e-09 -2.0267305    
      1390   13.9           1.0250567e-09  1.3086701e-06 -381512.91      5.0123036e-09  4.8541312      27.91351       3888.3214      0.0005924312   0.001046965    0.00075368879  2.0670279e-10  6.2858983e-10 -2.0267305    
      1400   14             1.0439582e-09  1.3128865e-06 -381512.91      5.1047283e-09  4.8541312      27.91351       3888.3214      0.00059243139  0.0010469671   0.00075368597 -7.0861738e-11 -5.7145586e-10 -2.0267305    
      1410   14.1           1.0630565e-09  1.316798e-06  -381512.91      5.1981144e-09  4.8541312      27.91351       3888.3214      0.0005924278   0.0010469693   0.00075368728 -5.0009579e-10 -1.6954337e-09 -2.0267305    
      1420   14.2           1.0823534e-09  1.3203892e-06 -381512.91      5.2924723e-09  4.8541312      27.91351       3888.3214      0.00059243295  0.0010469639   0.00075368333  4.1232578e-11  1.0784905e-10 -2.0267305    
      1430   14.3           1.101851e-09   1.3236713e-06 -381512.91      5.387811e-09   4.8541312      27.91351       3888.3214      0.00059242512  0.0010469692   0.00075368626  2.2414778e-10  8.633947e-10  -2.0267305    
      1440   14.4           1.1215507e-09  1.3266215e-06 -381512.91      5.4841387e-09  4.8541312      27.91351       3888.3214      0.0005924308   0.0010469673   0.00075368066  2.7485206e-10  1.1665751e-09 -2.0267305    
      1450   14.5           1.1414542e-09  1.3292494e-06 -381512.91      5.5814623e-09  4.8541312      27.91351       3888.3214      0.000592425    0.0010469688   0.00075368332 -1.7226658e-10 -5.2074078e-10 -2.0267305    
      1460   14.6           1.1615625e-09  1.3315327e-06 -381512.91      5.6797877e-09  4.8541312      27.91351       3888.3214      0.00059242499  0.0010469678   0.00075368285 -5.7235936e-11 -6.7805435e-10 -2.0267305    
      1470   14.7           1.1818767e-09  1.3334698e-06 -381512.91      5.7791196e-09  4.8541312      27.91351       3888.3214      0.00059242746  0.0010469679   0.00075367758 -4.854318e-10  -1.3585774e-09 -2.0267305    
      1480   14.8           1.2023975e-09  1.3350557e-06 -381512.91      5.8794617e-09  4.8541312      27.91351       3888.3214      0.00059242179  0.0010469712   0.00075368121  3.1178434e-10  8.362768e-10  -2.0267305    
      1490   14.9           1.2231254e-09  1.3362897e-06 -381512.91      5.9808165e-09  4.8541312      27.91351       3888.3214      0.00059242809  0.0010469663   0.00075367568  3.4199588e-10  1.3995892e-09 -2.0267305    
      1500   15             1.2440607e-09  1.3371749e-06 -381512.91      6.0831855e-09  4.8541312      27.91351       3888.3214      0.00059241782  0.0010469707   0.00075367898 -2.9612614e-11 -4.1514166e-11 -2.0267305    
      1510   15.1           1.2652034e-09  1.3376972e-06 -381512.91      6.1865689e-09  4.8541312      27.91351       3888.3214      0.00059242498  0.0010469698   0.00075367435 -5.5826096e-12 -1.2933e-10    -2.0267305    
      1520   15.2           1.2865535e-09  1.3378636e-06 -381512.91      6.290966e-09   4.8541312      27.91351       3888.3214      0.00059241773  0.0010469711   0.00075367581 -4.9261643e-10 -1.7325115e-09 -2.0267305    
      1530   15.3           1.3081104e-09  1.3376561e-06 -381512.91      6.3963748e-09  4.8541312      27.91351       3888.3214      0.00059242079  0.0010469689   0.00075367358  9.1514149e-11  3.6950848e-11 -2.0267305    
      1540   15.4           1.3298736e-09  1.3370994e-06 -381512.91      6.5027922e-09  4.8541312      27.91351       3888.3214      0.00059242018  0.0010469708   0.00075367147  3.1057092e-10  1.4313163e-09 -2.0267305    
      1550   15.5           1.3518423e-09  1.33617e-06   -381512.91      6.610214e-09   4.8541312      27.91351       3888.3214      0.00059241554  0.0010469727   0.00075367209  4.6170995e-11  2.3591498e-10 -2.0267305    
      1560   15.6           1.3740152e-09  1.3348986e-06 -381512.91      6.7186349e-09  4.8541312      27.91351       3888.3214      0.00059242009  0.0010469694   0.00075366911  1.1475131e-11  1.2573633e-10 -2.0267305    
      1570   15.7           1.3963912e-09  1.3332563e-06 -381512.91      6.8280485e-09  4.8541312      27.91351       3888.3214      0.00059240984  0.0010469735   0.00075367161 -3.7772928e-10 -1.7981589e-09 -2.0267305    
      1580   15.8           1.4189686e-09  1.3312641e-06 -381512.91      6.9384471e-09  4.8541312      27.91351       3888.3214      0.00059241947  0.0010469713   0.00075366564 -2.9789791e-10 -5.6377695e-10 -2.0267305    
      1590   15.9           1.4417457e-09  1.3289178e-06 -381512.91      7.0498221e-09  4.8541312      27.91351       3888.3214      0.00059241376  0.0010469724   0.00075366659  3.5834665e-10  9.8686896e-10 -2.0267305    
      1600   16             1.4647205e-09  1.3262268e-06 -381512.91      7.1621638e-09  4.8541312      27.91351       3888.3214      0.00059240986  0.0010469727   0.00075366699  3.0509838e-10  1.2294419e-09 -2.0267305    
      1610   16.1           1.4878907e-09  1.3231979e-06 -381512.91      7.2754613e-09  4.8541312      27.91351       3888.3214      0.00059241685  0.0010469715   0.0007536625  -5.0933972e-12  1.9799718e-10 -2.0267305    
      1620   16.2           1.511254e-09   1.3198416e-06 -381512.91      7.3897029e-09  4.8541312      27.91351       3888.3214      0.00059240436  0.0010469769   0.0007536652  -3.0331271e-10 -1.4335595e-09 -2.0267305    
      1630   16.3           1.5348078e-09  1.3161405e-06 -381512.91      7.5048756e-09  4.8541312      27.91351       3888.3214      0.00059241408  0.0010469714   0.00075366071 -2.8583598e-10 -8.9270176e-10 -2.0267305    
      1640   16.4           1.5585491e-09  1.3121407e-06 -381512.91      7.6209655e-09  4.8541312      27.91351       3888.3214      0.00059240757  0.0010469736   0.000753662    1.2346108e-10  1.3438624e-10 -2.0267305    
      1650   16.5           1.582475e-09   1.3078119e-06 -381512.91      7.7379579e-09  4.8541312      27.91351       3888.3214      0.00059240714  0.0010469759   0.00075365937  3.9166838e-10  2.0208539e-09 -2.0267305    
      1660   16.6           1.6065822e-09  1.3032058e-06 -381512.91      7.855837e-09   4.8541312      27.91351       3888.3214      0.00059241103  0.0010469736   0.00075365675  7.2074131e-11 -5.9084085e-11 -2.0267305    
      1670   16.7           1.6308674e-09  1.2982934e-06 -381512.91      7.9745861e-09  4.8541312      27.91351       3888.3214      0.00059239914  0.0010469762   0.0007536607  -1.9122649e-10 -6.6256014e-10 -2.0267305    
      1680   16.8           1.6553269e-09  1.2931153e-06 -381512.91      8.0941878e-09  4.8541312      27.91351       3888.3214      0.0005924104   0.0010469738   0.00075365393 -3.0508692e-10 -1.3864934e-09 -2.0267305    
      1690   16.9           1.6799571e-09  1.2876665e-06 -381512.91      8.2146238e-09  4.8541312      27.91351       3888.3214      0.0005924007   0.0010469783   0.0007536554  -1.8874024e-10 -1.7892281e-10 -2.0267305    
      1700   17             1.7047539e-09  1.2819684e-06 -381512.91      8.3358751e-09  4.8541312      27.91351       3888.3214      0.00059240433  0.0010469745   0.00075365325  6.9042182e-10  1.9780663e-09 -2.0267305    
      1710   17.1           1.7297135e-09  1.2760369e-06 -381512.91      8.4579219e-09  4.8541312      27.91351       3888.3214      0.00059240197  0.0010469756   0.00075365367  9.8159584e-11  8.0703052e-10 -2.0267305    
      1720   17.2           1.7548316e-09  1.2698771e-06 -381512.91      8.5807439e-09  4.8541312      27.91351       3888.3214      0.00059239818  0.0010469789   0.00075365036 -2.6738757e-10 -9.9948527e-10 -2.0267305    
      1730   17.3           1.7801039e-09  1.2635173e-06 -381512.91      8.7043202e-09  4.8541312      27.91351       3888.3214      0.00059240338  0.001046977    0.00075364874 -2.9251687e-10 -1.2149281e-09 -2.0267305    
      1740   17.4           1.8055261e-09  1.2569637e-06 -381512.91      8.8286291e-09  4.8541312      27.91351       3888.3214      0.00059239306  0.0010469772   0.00075365194 -3.9148339e-10 -1.5032612e-09 -2.0267305    
      1750   17.5           1.8310937e-09  1.2502455e-06 -381512.91      8.9536489e-09  4.8541312      27.91351       3888.3214      0.00059240304  0.0010469759   0.00075364405  5.5362224e-10  2.1536844e-09 -2.0267305    
      1760   17.6           1.856802e-09   1.2433666e-06 -381512.91      9.079357e-09   4.8541312      27.91351       3888.3214      0.00059239389  0.001046982    0.00075364622  1.9031691e-10  9.3991231e-10 -2.0267305    
      1770   17.7           1.8826465e-09  1.2363527e-06 -381512.91      9.2057309e-09  4.8541312      27.91351       3888.3214      0.0005923941   0.0010469775   0.0007536457   2.9128778e-11 -5.1166142e-11 -2.0267305    
      1780   17.8           1.9086224e-09  1.2292264e-06 -381512.91      9.3327474e-09  4.8541312      27.91351       3888.3214      0.00059239826  0.0010469761   0.00075364309 -3.2091302e-10 -1.4684819e-09 -2.0267305    
      1790   17.9           1.934725e-09   1.2219972e-06 -381512.91      9.4603835e-09  4.8541312      27.91351       3888.3214      0.00059238474  0.0010469847   0.00075364347 -4.3413467e-10 -1.3243518e-09 -2.0267305    
      1800   18             1.9609495e-09  1.2147044e-06 -381512.91      9.5886157e-09  4.8541312      27.91351       3888.3214      0.00059240102  0.0010469767   0.00075363633  3.2094372e-10  1.1996041e-09 -2.0267305    
      1810   18.1           1.9872912e-09  1.2073498e-06 -381512.91      9.7174206e-09  4.8541312      27.91351       3888.3214      0.00059238437  0.0010469809   0.00075364451  5.3436387e-10  1.6977052e-09 -2.0267305    
      1820   18.2           2.0137451e-09  1.1999583e-06 -381512.91      9.8467748e-09  4.8541312      27.91351       3888.3214      0.00059239171  0.0010469795   0.00075363527 -4.2671552e-11  1.9697351e-10 -2.0267305    
      1830   18.3           2.0403067e-09  1.1925637e-06 -381512.91      9.9766549e-09  4.8541312      27.91351       3888.3214      0.00059238975  0.0010469829   0.00075363543 -4.0238423e-10 -1.5037028e-09 -2.0267305    
      1840   18.4           2.066971e-09   1.1851662e-06 -381512.91      1.0107038e-08  4.8541312      27.91351       3888.3214      0.00059238137  0.0010469825   0.00075363812 -2.0992171e-10 -1.2116707e-09 -2.0267305    
      1850   18.5           2.0937334e-09  1.1778216e-06 -381512.91      1.02379e-08    4.8541312      27.91351       3888.3214      0.00059239202  0.0010469778   0.00075363282 -6.8605414e-11  1.272894e-10  -2.0267305    
      1860   18.6           2.1205892e-09  1.1705164e-06 -381512.91      1.0369219e-08  4.8541312      27.91351       3888.3214      0.00059238023  0.0010469857   0.00075363229  4.5090743e-10  1.5986262e-09 -2.0267305    
      1870   18.7           2.1475339e-09  1.1632987e-06 -381512.91      1.0500973e-08  4.8541312      27.91351       3888.3214      0.0005923866   0.001046982    0.00075362904  1.9803498e-10  9.123717e-10  -2.0267305    
      1880   18.8           2.1745628e-09  1.1561707e-06 -381512.91      1.0633138e-08  4.8541312      27.91351       3888.3214      0.00059238307  0.0010469816   0.00075363253 -4.1073535e-10 -1.7411249e-09 -2.0267305    
      1890   18.9           2.2016717e-09  1.1491677e-06 -381512.91      1.0765695e-08  4.8541312      27.91351       3888.3214      0.00059237563  0.0010469846   0.00075362943 -2.0606268e-10 -7.9491659e-10 -2.0267305    
      1900   19             2.228856e-09   1.1423136e-06 -381512.91      1.089862e-08   4.8541312      27.91351       3888.3214      0.00059238639  0.0010469842   0.00075362289 -1.74949e-10   -3.7059833e-10 -2.0267305    
      1910   19.1           2.2561117e-09  1.135627e-06  -381512.91      1.1031895e-08  4.8541312      27.91351       3888.3214      0.00059237304  0.0010469853   0.00075362984  4.0128321e-10  1.1805689e-09 -2.0267305    
      1920   19.2           2.2834347e-09  1.1291195e-06 -381512.91      1.1165498e-08  4.8541312      27.91351       3888.3214      0.00059238347  0.0010469806   0.0007536224   4.7148321e-10  1.7778489e-09 -2.0267305    
      1930   19.3           2.310821e-09   1.1228236e-06 -381512.91      1.1299411e-08  4.8541312      27.91351       3888.3214      0.00059237262  0.0010469882   0.00075362404 -5.8187527e-10 -1.8536588e-09 -2.0267305    
      1940   19.4           2.3382668e-09  1.1167467e-06 -381512.91      1.1433615e-08  4.8541312      27.91351       3888.3214      0.00059237681  0.0010469852   0.00075361934 -4.5247622e-11 -3.0115867e-10 -2.0267305    
      1950   19.5           2.3657685e-09  1.1109284e-06 -381512.91      1.1568092e-08  4.8541312      27.91351       3888.3214      0.00059237621  0.0010469844   0.00075362295 -7.8145977e-11 -8.2090413e-10 -2.0267305    
      1960   19.6           2.3933225e-09  1.1053622e-06 -381512.91      1.1702826e-08  4.8541312      27.91351       3888.3214      0.00059236816  0.001046987    0.00075362005  6.1585518e-11  1.012531e-09  -2.0267305    
      1970   19.7           2.4209257e-09  1.1000898e-06 -381512.91      1.1837799e-08  4.8541312      27.91351       3888.3214      0.0005923796   0.0010469854   0.00075361236  5.8498474e-10  1.6809658e-09 -2.0267305    
      1980   19.8           2.4485749e-09  1.0950902e-06 -381512.91      1.1972998e-08  4.8541312      27.91351       3888.3214      0.00059236499  0.0010469896   0.00075362056 -3.8848057e-10 -1.0034314e-09 -2.0267305    
      1990   19.9           2.4762671e-09  1.0904299e-06 -381512.91      1.2108406e-08  4.8541312      27.91351       3888.3214      0.00059237249  0.0010469839   0.00075361389 -1.8680093e-10 -1.1598523e-09 -2.0267305    
      2000   20             2.5039997e-09  1.0860681e-06 -381512.91      1.2244013e-08  4.8541312      27.91351       3888.3214      0.0005923679   0.0010469897   0.00075361381 -1.6375105e-10 -3.9750826e-10 -2.0267305    
Loop time of 1456.93 on 2 procs for 2000 steps with 37830 atoms

97.4% CPU use with 1 MPI tasks x 2 OpenMP threads

Minimization stats:
  Stopping criterion = max iterations
  Energy initial, next-to-last, final = 
     -381512.911498623  -381512.911498647  -381512.911498643
  Force two-norm initial, final = 4.7989205e-05 1.0860681e-06
  Force max component initial, final = 7.9937109e-07 1.2613116e-08
  Final line search alpha, max atom move = 0 0
  Iterations, force evaluations = 2000 2002

MPI task timing breakdown:
Section |  min time  |  avg time  |  max time  |%varavg| %total
---------------------------------------------------------------
Pair    | 1450.3     | 1450.3     | 1450.3     |   0.0 | 99.55
Neigh   | 0          | 0          | 0          |   0.0 |  0.00
Comm    | 4.583      | 4.583      | 4.583      |   0.0 |  0.31
Output  | 0.063367   | 0.063367   | 0.063367   |   0.0 |  0.00
Modify  | 0          | 0          | 0          |   0.0 |  0.00
Other   |            | 1.934      |            |       |  0.13

Nlocal:          37830 ave       37830 max       37830 min
Histogram: 1 0 0 0 0 0 0 0 0 0
Nghost:         214733 ave      214733 max      214733 min
Histogram: 1 0 0 0 0 0 0 0 0 0
Neighs:              0 ave           0 max           0 min
Histogram: 1 0 0 0 0 0 0 0 0 0
FullNghs:  4.64436e+06 ave 4.64436e+06 max 4.64436e+06 min
Histogram: 1 0 0 0 0 0 0 0 0 0

Total # of neighbors = 4644360
Ave neighs/atom = 122.76923
Neighbor list builds = 0
Dangerous builds = 0
Switching to 'neigh_modify every 1 delay 0 check yes' setting during minimization
Setting up cg style minimization ...
  Unit style    : metal
  Current step  : 2000
WARNING: Energy due to 3 extra global DOFs will be included in minimizer energies
 (src/min.cpp:219)
Per MPI rank memory allocation (min/avg/max) = 95.78 | 95.78 | 95.78 Mbytes
   Step          Time           Temp          Fnorm          PotEng         KinEng           Lx             Ly             Lz            Pxx            Pyy            Pzz            Pxy            Pxz            Pyz      
      2000   2              2.5039997e-09  1.0860683e-06 -381512.91      1.2244013e-08  4.8541312      27.91351       3888.3214      0.00059236745  0.0010469897   0.00075361409 -1.9328465e-10 -4.6955438e-10 -2.0267305    
      2010   2.01           2.5039997e-09  1.970528e-06  -381512.91      1.2244013e-08  4.8541312      27.91351       3888.3214     -0.0010111828   0.00070479541 -0.00038402433  9.794993e-10   5.9811999e-11 -2.0267247    
      2020   2.02           2.5039997e-09  1.4033587e-06 -381512.91      1.2244013e-08  4.8541312      27.91351       3888.3214     -1.9448235e-07  5.8903828e-07 -1.1992331e-06 -5.5495116e-10  5.8190246e-09 -2.0267392    
      2030   2.03           2.5039997e-09  1.675193e-06  -381512.91      1.2244013e-08  4.8541312      27.91351       3888.3214      3.6466268e-05  5.0056993e-07  4.6160091e-05 -1.0286482e-09  6.7554918e-09 -2.0267382    
      2040   2.04           2.5039997e-09  1.9053975e-06 -381512.91      1.2244013e-08  4.8541312      27.91351       3888.3214      8.1264435e-07 -1.505379e-07  -1.0606682e-06 -1.3132731e-09  7.5497453e-09 -2.0267317    
      2050   2.05           2.5039997e-09  2.121714e-06  -381512.91      1.2244013e-08  4.8541312      27.91351       3888.3214      6.1952629e-06 -8.3214197e-06  6.8464605e-05 -1.8168153e-09  7.4074911e-09 -2.0267324    
Loop time of 74.729 on 2 procs for 50 steps with 37830 atoms

97.4% CPU use with 1 MPI tasks x 2 OpenMP threads

Minimization stats:
  Stopping criterion = linesearch alpha is zero
  Energy initial, next-to-last, final = 
     -381512.911498643  -381512.911498656  -381512.911498656
  Force two-norm initial, final = 0.00046676892 2.2872067e-05
  Force max component initial, final = 0.00034426223 2.2513495e-05
  Final line search alpha, max atom move = 0.5 1.1256747e-05
  Iterations, force evaluations = 50 101

MPI task timing breakdown:
Section |  min time  |  avg time  |  max time  |%varavg| %total
---------------------------------------------------------------
Pair    | 73.949     | 73.949     | 73.949     |   0.0 | 98.96
Neigh   | 0.19977    | 0.19977    | 0.19977    |   0.0 |  0.27
Comm    | 0.18248    | 0.18248    | 0.18248    |   0.0 |  0.24
Output  | 0.00082964 | 0.00082964 | 0.00082964 |   0.0 |  0.00
Modify  | 0          | 0          | 0          |   0.0 |  0.00
Other   |            | 0.3969     |            |       |  0.53

Nlocal:          37830 ave       37830 max       37830 min
Histogram: 1 0 0 0 0 0 0 0 0 0
Nghost:         214733 ave      214733 max      214733 min
Histogram: 1 0 0 0 0 0 0 0 0 0
Neighs:              0 ave           0 max           0 min
Histogram: 1 0 0 0 0 0 0 0 0 0
FullNghs:  4.64436e+06 ave 4.64436e+06 max 4.64436e+06 min
Histogram: 1 0 0 0 0 0 0 0 0 0

Total # of neighbors = 4644360
Ave neighs/atom = 122.76923
Neighbor list builds = 2
Dangerous builds = 2
Switching to 'neigh_modify every 1 delay 0 check yes' setting during minimization
Setting up fire style minimization ...
  Unit style    : metal
  Current step  : 2050
  Parameters for fire:
    dmax  delaystep dtgrow dtshrink alpha0 alphashrink tmax tmin   integrator   halfstepback   abcfire  
     0.1     20      1.1     0.5     0.25     0.99      10  0.02 eulerimplicit      yes          no     
Per MPI rank memory allocation (min/avg/max) = 77.78 | 77.78 | 77.78 Mbytes
   Step          Time           Temp          Fnorm          PotEng         KinEng           Lx             Ly             Lz            Pxx            Pyy            Pzz            Pxy            Pxz            Pyz      
      2050   2.05           0              2.121715e-06  -381512.91      0              4.8541312      27.91351       3888.3214      6.1944953e-06 -8.3955752e-06  6.8464157e-05 -1.8527948e-09  7.3223736e-09 -2.0267324    
      2060   2.06           3.6740295e-15  1.9876766e-06 -381512.91      1.7965203e-14  4.8541312      27.91351       3888.3214      7.9671922e-06 -4.9736742e-06  7.0658153e-05 -1.8409442e-09  6.7069565e-09 -2.0267329    
      2070   2.07           1.3625825e-14  1.673062e-06  -381512.91      6.6627317e-14  4.8541312      27.91351       3888.3214      1.3127424e-05  4.8231909e-06  7.6878281e-05 -1.5974905e-09  5.3533853e-09 -2.0267347    
      2080   4.9045312      3.3306563e-14  1.1828312e-06 -381512.91      1.6286183e-13  4.8541312      27.91351       3888.3214      2.0937844e-05  2.5810357e-05  8.8853854e-05 -1.0142924e-09  2.1159098e-09 -2.0267398    
      2090   12.78225       7.4182038e-14  9.6224259e-07 -381512.91      3.62734e-13    4.8541312      27.91351       3888.3214      9.2962042e-06  4.8396689e-05  9.3973587e-05  5.7543846e-11 -3.9571076e-10 -2.0267519    
      2100   21             2.7185546e-13  9.6078475e-07 -381512.91      1.329314e-12   4.8541312      27.91351       3888.3214      1.3537686e-05  4.7724711e-05  9.4916179e-05 -6.6401056e-11  9.7186903e-11 -2.0267491    
      2110   21.1           6.5372271e-13  9.5670055e-07 -381512.91      3.1965616e-12  4.8541312      27.91351       3888.3214      1.3440534e-05  4.8531786e-05  9.431116e-05  -1.7553026e-12 -7.6425769e-11 -2.0267487    
      2120   21.2           1.2353008e-12  9.544753e-07  -381512.91      6.0403517e-12  4.8541312      27.91351       3888.3214      1.3597933e-05  4.8429066e-05  9.4182143e-05  2.7853948e-13  1.3310327e-10 -2.0267485    
      2130   21.3           2.0266373e-12  9.5425916e-07 -381512.91      9.9098147e-12  4.8541312      27.91351       3888.3214      1.3678132e-05  4.8236866e-05  9.4037002e-05 -3.1818636e-11  1.5205205e-11 -2.0267485    
      2140   21.4           3.0399084e-12  9.5369239e-07 -381512.91      1.4864489e-11  4.8541312      27.91351       3888.3214      1.3611095e-05  4.82498e-05    9.4051282e-05 -3.4521646e-11  7.7652017e-11 -2.0267485    
      2150   21.5           4.2781483e-12  9.5314813e-07 -381512.91      2.0919213e-11  4.8541312      27.91351       3888.3214      1.3615373e-05  4.8203573e-05  9.4039177e-05  7.6129004e-11  1.1468795e-10 -2.0267485    
      2160   21.6           5.7513089e-12  9.528301e-07  -381512.91      2.8122647e-11  4.8541312      27.91351       3888.3214      1.3606078e-05  4.8214091e-05  9.4048435e-05 -4.5972817e-11 -2.1849227e-10 -2.0267485    
      2170   21.7           7.4647594e-12  9.5243137e-07 -381512.91      3.6501046e-11  4.8541312      27.91351       3888.3214      1.3606331e-05  4.8218527e-05  9.4042451e-05  3.6931601e-11  1.7077934e-10 -2.0267485    
      2180   21.8           9.4228533e-12  9.5210241e-07 -381512.91      4.6075699e-11  4.8541312      27.91351       3888.3214      1.3598998e-05  4.821881e-05   9.4039679e-05 -1.3262893e-10 -1.1665156e-10 -2.0267485    
      2190   21.9           1.1629577e-11  9.5173054e-07 -381512.91      5.6866097e-11  4.8541312      27.91351       3888.3214      1.3600854e-05  4.8212868e-05  9.4036888e-05  1.1515659e-10  1.8376568e-10 -2.0267485    
      2200   22             1.4087507e-11  9.5138003e-07 -381512.91      6.8884839e-11  4.8541312      27.91351       3888.3214      1.3598071e-05  4.8213138e-05  9.4037607e-05 -4.1865296e-11  8.2677204e-12 -2.0267485    
      2210   22.1           1.6799007e-11  9.5100043e-07 -381512.91      8.2143484e-11  4.8541312      27.91351       3888.3214      1.3600653e-05  4.8211382e-05  9.4036966e-05 -2.544637e-11   1.9048708e-11 -2.0267485    
      2220   22.2           1.9765134e-11  9.5062413e-07 -381512.91      9.6647195e-11  4.8541312      27.91351       3888.3214      1.3599912e-05  4.8213345e-05  9.4038016e-05 -2.9416457e-11 -9.9403063e-11 -2.0267485    
      2230   22.3           2.2986753e-11  9.5023039e-07 -381512.91      1.1240021e-10  4.8541312      27.91351       3888.3214      1.3600877e-05  4.8214559e-05  9.4038239e-05 -1.371927e-11   4.7942516e-11 -2.0267485    
      2240   22.4           2.6463721e-11  9.4983792e-07 -381512.91      1.2940183e-10  4.8541312      27.91351       3888.3214      1.3599303e-05  4.8215201e-05  9.4038162e-05  1.0491648e-10 -1.9534481e-10 -2.0267485    
      2250   22.5           3.0195774e-11  9.4943629e-07 -381512.91      1.4765075e-10  4.8541312      27.91351       3888.3214      1.3600265e-05  4.8214018e-05  9.4037244e-05  3.5400804e-11 -2.9114611e-10 -2.0267485    
      2260   22.6           3.4181663e-11  9.4903454e-07 -381512.91      1.6714088e-10  4.8541312      27.91351       3888.3214      1.359923e-05   4.8214967e-05  9.4038316e-05  8.7659838e-11 -4.8851397e-11 -2.0267485    
      2270   22.7           3.8420011e-11  9.4863643e-07 -381512.91      1.8786548e-10  4.8541312      27.91351       3888.3214      1.3599688e-05  4.8214118e-05  9.403737e-05  -8.2141728e-11 -3.80226e-10   -2.0267485    
      2280   22.8           4.2908799e-11  9.4824157e-07 -381512.91      2.0981468e-10  4.8541312      27.91351       3888.3214      1.3599952e-05  4.8214405e-05  9.4037433e-05 -7.9244885e-11 -1.8240168e-10 -2.0267485    
      2290   22.9           4.7645589e-11  9.4785942e-07 -381512.91      2.3297654e-10  4.8541312      27.91351       3888.3214      1.3599251e-05  4.8214768e-05  9.4036625e-05  7.2231855e-11 -1.1631664e-10 -2.0267485    
      2300   23             5.2627656e-11  9.4749219e-07 -381512.91      2.5733777e-10  4.8541312      27.91351       3888.3214      1.3598297e-05  4.8215125e-05  9.4037007e-05  6.6572603e-11 -7.7957228e-11 -2.0267485    
      2310   23.1           5.7851799e-11  9.4714353e-07 -381512.91      2.8288269e-10  4.8541312      27.91351       3888.3214      1.3599804e-05  4.821444e-05   9.4036319e-05 -9.1348371e-11 -7.659134e-10  -2.0267485    
      2320   23.2           6.331444e-11   9.4682091e-07 -381512.91      3.0959381e-10  4.8541312      27.91351       3888.3214      1.359815e-05   4.8215007e-05  9.4036586e-05  1.3538928e-10  3.0622436e-10 -2.0267485    
      2330   23.3           6.9011726e-11  9.4653097e-07 -381512.91      3.374523e-10   4.8541312      27.91351       3888.3214      1.3596866e-05  4.821541e-05   9.4036472e-05  7.0064912e-11  5.1899864e-10 -2.0267485    
      2340   23.4           7.4939492e-11  9.4627965e-07 -381512.91      3.6643778e-10  4.8541312      27.91351       3888.3214      1.3598852e-05  4.8214397e-05  9.4034995e-05 -5.3777936e-11 -1.0991395e-10 -2.0267485    
      2350   23.5           8.1093254e-11  9.460735e-07  -381512.91      3.9652834e-10  4.8541312      27.91351       3888.3214      1.3598189e-05  4.8214756e-05  9.4035147e-05  1.4757912e-11 -2.2924894e-10 -2.0267485    
      2360   23.6           8.7468262e-11  9.4591799e-07 -381512.91      4.2770074e-10  4.8541312      27.91351       3888.3214      1.3597258e-05  4.821521e-05   9.4035893e-05  2.0688487e-12  1.1803447e-10 -2.0267485    
      2370   23.7           9.4059498e-11  9.4582265e-07 -381512.91      4.5993044e-10  4.8541312      27.91351       3888.3214      1.3599161e-05  4.8214522e-05  9.4034641e-05 -4.604765e-11  -2.1019618e-10 -2.0267485    
      2380   23.8           1.0086173e-10  9.4579349e-07 -381512.91      4.9319187e-10  4.8541312      27.91351       3888.3214      1.3598823e-05  4.8215029e-05  9.4035027e-05 -4.3442049e-11 -2.7863649e-10 -2.0267485    
      2390   23.9           1.0786952e-10  9.4584121e-07 -381512.91      5.2745846e-10  4.8541312      27.91351       3888.3214      1.3599157e-05  4.8214952e-05  9.4034004e-05  1.4157625e-11 -1.3540451e-10 -2.0267485    
      2400   24             1.1507727e-10  9.459709e-07  -381512.91      5.6270275e-10  4.8541312      27.91351       3888.3214      1.3596124e-05  4.8215118e-05  9.4034456e-05  1.0394701e-11 -1.8008694e-10 -2.0267485    
      2410   24.1           1.2247918e-10  9.4619433e-07 -381512.91      5.9889651e-10  4.8541312      27.91351       3888.3214      1.3598434e-05  4.8215844e-05  9.4033137e-05 -2.6190461e-11 -1.0749522e-10 -2.0267485    
      2420   24.2           1.3006942e-10  9.4651588e-07 -381512.91      6.3601113e-10  4.8541312      27.91351       3888.3214      1.3596225e-05  4.8216375e-05  9.4034009e-05 -3.5399465e-11  1.9947057e-10 -2.0267485    
      2430   24.3           1.37842e-10    9.4694486e-07 -381512.91      6.7401735e-10  4.8541312      27.91351       3888.3214      1.3596315e-05  4.8216083e-05  9.4032894e-05 -4.4386316e-11 -4.5632765e-10 -2.0267485    
      2440   24.4           1.4579094e-10  9.4749105e-07 -381512.91      7.1288592e-10  4.8541312      27.91351       3888.3214      1.3597315e-05  4.8215757e-05  9.4032766e-05 -3.3619866e-11  2.4153168e-10 -2.0267485    
      2450   24.5           1.5391024e-10  9.4815729e-07 -381512.91      7.5258751e-10  4.8541312      27.91351       3888.3214      1.359583e-05   4.8215257e-05  9.4033194e-05 -9.6129156e-11 -6.0456185e-11 -2.0267485    
      2460   24.6           1.6219393e-10  9.489509e-07  -381512.91      7.9309296e-10  4.8541312      27.91351       3888.3214      1.3595892e-05  4.8216403e-05  9.4032268e-05  1.99954e-11   -1.5032477e-10 -2.0267485    
      2470   24.7           1.7063613e-10  9.4988104e-07 -381512.91      8.3437347e-10  4.8541312      27.91351       3888.3214      1.3595717e-05  4.821697e-05   9.403118e-05   1.2951566e-11 -1.2660335e-10 -2.0267485    
      2480   24.8           1.7923107e-10  9.5095221e-07 -381512.91      8.7640088e-10  4.8541312      27.91351       3888.3214      1.3594559e-05  4.8216727e-05  9.4031342e-05 -6.1366416e-11 -1.3923316e-10 -2.0267485    
      2490   24.9           1.8797319e-10  9.5216382e-07 -381512.91      9.1914791e-10  4.8541312      27.91351       3888.3214      1.3592833e-05  4.8217336e-05  9.4032195e-05  6.6160643e-12  4.6726922e-13 -2.0267485    
      2500   25             1.9685711e-10  9.5351685e-07 -381512.91      9.6258834e-10  4.8541312      27.91351       3888.3214      1.3592621e-05  4.8218507e-05  9.4031392e-05 -1.152106e-11   1.5633986e-10 -2.0267485    
      2510   25.1           2.0587772e-10  9.550098e-07  -381512.91      1.0066972e-09  4.8541312      27.91351       3888.3214      1.3593311e-05  4.8217095e-05  9.4030556e-05 -1.7306838e-10 -1.5557548e-10 -2.0267485    
      2520   25.2           2.1503022e-10  9.5664472e-07 -381512.91      1.0514509e-09  4.8541312      27.91351       3888.3214      1.3594426e-05  4.8217252e-05  9.4030348e-05  2.5050977e-11  3.5533371e-10 -2.0267485    
      2530   25.3           2.2431009e-10  9.5841577e-07 -381512.91      1.0968274e-09  4.8541312      27.91351       3888.3214      1.3592202e-05  4.8217573e-05  9.4029655e-05  4.303719e-11   5.2237353e-10 -2.0267485    
      2540   25.4           2.3371322e-10  9.6030983e-07 -381512.91      1.1428067e-09  4.8541312      27.91351       3888.3214      1.3592496e-05  4.8217754e-05  9.4029281e-05  3.0821324e-12  3.950031e-10  -2.0267485    
      2550   25.5           2.4323585e-10  9.6232584e-07 -381512.91      1.1893703e-09  4.8541312      27.91351       3888.3214      1.3593366e-05  4.8216576e-05  9.4027504e-05  1.0885042e-10  2.1874751e-10 -2.0267485    
      2560   25.6           2.5287463e-10  9.6444926e-07 -381512.91      1.2365018e-09  4.8541312      27.91351       3888.3214      1.3591336e-05  4.8218785e-05  9.4028211e-05 -9.1348352e-11  6.6053981e-11 -2.0267485    
      2570   25.7           2.6262659e-10  9.6666619e-07 -381512.91      1.2841868e-09  4.8541312      27.91351       3888.3214      1.3592009e-05  4.8217432e-05  9.4028351e-05  1.1412207e-10  3.2578491e-10 -2.0267485    
      2580   25.8           2.7248922e-10  9.6895806e-07 -381512.91      1.3324129e-09  4.8541312      27.91351       3888.3214      1.3592693e-05  4.8217983e-05  9.4026273e-05  2.0700397e-11  2.9116655e-12 -2.0267485    
      2590   25.9           2.8246035e-10  9.7132247e-07 -381512.91      1.3811695e-09  4.8541312      27.91351       3888.3214      1.3591228e-05  4.8218336e-05  9.4026859e-05 -1.0040818e-10 -9.0272377e-11 -2.0267485    
      2600   26             2.9253821e-10  9.7372223e-07 -381512.91      1.4304481e-09  4.8541312      27.91351       3888.3214      1.3589575e-05  4.8218443e-05  9.4025863e-05  1.7153296e-10  3.1488778e-10 -2.0267485    
      2610   26.1           3.0272143e-10  9.761544e-07  -381512.91      1.4802418e-09  4.8541312      27.91351       3888.3214      1.3591964e-05  4.8218483e-05  9.4025005e-05 -4.0580294e-11  2.7079552e-10 -2.0267485    
      2620   26.2           3.1300895e-10  9.7859862e-07 -381512.91      1.5305455e-09  4.8541312      27.91351       3888.3214      1.3588513e-05  4.8218735e-05  9.4026388e-05  1.6008955e-10  5.3962338e-10 -2.0267485    
      2630   26.3           3.2340004e-10  9.8102576e-07 -381512.91      1.5813557e-09  4.8541312      27.91351       3888.3214      1.3590335e-05  4.8218842e-05  9.4023551e-05 -1.0366387e-10  3.9728678e-10 -2.0267485    
      2640   26.4           3.3389424e-10  9.834343e-07  -381512.91      1.63267e-09    4.8541312      27.91351       3888.3214      1.35875e-05    4.8220326e-05  9.4026356e-05  2.9525534e-10  9.5149009e-10 -2.0267485    
      2650   26.5           3.4449135e-10  9.857965e-07  -381512.91      1.6844876e-09  4.8541312      27.91351       3888.3214      1.3589023e-05  4.8218866e-05  9.4024015e-05 -7.0597072e-11  3.3387437e-10 -2.0267485    
      2660   26.6           3.551914e-10   9.8809764e-07 -381512.91      1.7368085e-09  4.8541312      27.91351       3888.3214      1.3587213e-05  4.8220337e-05  9.4024101e-05  2.4908869e-10  5.4231896e-10 -2.0267485    
      2670   26.7           3.6599456e-10  9.9033709e-07 -381512.91      1.7896336e-09  4.8541312      27.91351       3888.3214      1.3585932e-05  4.8220954e-05  9.4024165e-05 -2.2040022e-10 -2.9209686e-10 -2.0267485    
      2680   26.8           3.7690121e-10  9.9247545e-07 -381512.91      1.8429648e-09  4.8541312      27.91351       3888.3214      1.3587594e-05  4.821876e-05   9.4022472e-05  6.4233165e-11 -3.6528009e-10 -2.0267485    
      2690   26.9           3.8791181e-10  9.9453814e-07 -381512.91      1.8968042e-09  4.8541312      27.91351       3888.3214      1.3585665e-05  4.8221197e-05  9.4022443e-05 -2.4275558e-10 -9.6238317e-10 -2.0267485    
      2700   27             3.9902691e-10  9.9647555e-07 -381512.91      1.9511546e-09  4.8541312      27.91351       3888.3214      1.3586906e-05  4.8220593e-05  9.402092e-05  -6.3673731e-11 -5.8653682e-10 -2.0267485    
      2710   27.1           4.1024716e-10  9.9831695e-07 -381512.91      2.0060192e-09  4.8541312      27.91351       3888.3214      1.358549e-05   4.8219631e-05  9.4020891e-05 -2.8448545e-10 -8.2199533e-10 -2.0267485    
      2720   27.2           4.2157323e-10  1.0000262e-06 -381512.91      2.0614012e-09  4.8541312      27.91351       3888.3214      1.3586656e-05  4.8219999e-05  9.4019463e-05  3.1642566e-10  8.0714261e-10 -2.0267485    
      2730   27.3           4.3300581e-10  1.001619e-06  -381512.91      2.117304e-09   4.8541312      27.91351       3888.3214      1.358353e-05   4.8222265e-05  9.4020165e-05  2.2154182e-11  5.6046014e-10 -2.0267485    
      2740   27.4           4.4454561e-10  1.0030891e-06 -381512.91      2.1737311e-09  4.8541312      27.91351       3888.3214      1.3584212e-05  4.8220433e-05  9.4019154e-05  2.8907309e-10  1.1554835e-09 -2.0267485    
      2750   27.5           4.5619335e-10  1.0044247e-06 -381512.91      2.230686e-09   4.8541312      27.91351       3888.3214      1.3583423e-05  4.8220686e-05  9.401906e-05   1.7437333e-10  7.065376e-10  -2.0267485    
      2760   27.6           4.6794969e-10  1.0056498e-06 -381512.91      2.288172e-09   4.8541312      27.91351       3888.3214      1.3582109e-05  4.8223325e-05  9.4018183e-05 -6.317914e-11  -3.9453043e-10 -2.0267485    
      2770   27.7           4.7981531e-10  1.0067277e-06 -381512.91      2.3461923e-09  4.8541312      27.91351       3888.3214      1.3582679e-05  4.8220507e-05  9.4017935e-05 -2.8041712e-10 -8.852727e-10  -2.0267485    
      2780   27.8           4.9179082e-10  1.0077048e-06 -381512.91      2.4047499e-09  4.8541312      27.91351       3888.3214      1.3583228e-05  4.8221069e-05  9.401579e-05  -1.2031174e-10 -9.2191833e-10 -2.0267485    
      2790   27.9           5.0387681e-10  1.0085366e-06 -381512.91      2.4638478e-09  4.8541312      27.91351       3888.3214      1.3582548e-05  4.8222379e-05  9.4016161e-05  2.1059603e-11  1.4345075e-10 -2.0267485    
      2800   28             5.1607382e-10  1.0092729e-06 -381512.91      2.5234885e-09  4.8541312      27.91351       3888.3214      1.3581056e-05  4.8222395e-05  9.4015596e-05  8.1791618e-11  6.6515984e-10 -2.0267485    
      2810   28.1           5.2838232e-10  1.009875e-06  -381512.91      2.5836744e-09  4.8541312      27.91351       3888.3214      1.3580654e-05  4.8220739e-05  9.4015243e-05  3.6499311e-10  1.2955526e-09 -2.0267485    
      2820   28.2           5.4080277e-10  1.0103829e-06 -381512.91      2.6444077e-09  4.8541312      27.91351       3888.3214      1.3578016e-05  4.8224774e-05  9.401562e-05  -1.1714653e-10 -3.8823172e-10 -2.0267485    
      2830   28.3           5.5333555e-10  1.0107671e-06 -381512.91      2.7056902e-09  4.8541312      27.91351       3888.3214      1.3581058e-05  4.8222197e-05  9.4013414e-05 -7.7539263e-11 -6.1771431e-10 -2.0267485    
      2840   28.4           5.6598099e-10  1.0110626e-06 -381512.91      2.7675237e-09  4.8541312      27.91351       3888.3214      1.3578833e-05  4.8221738e-05  9.4012862e-05 -2.9639176e-10 -8.6610515e-10 -2.0267485    
      2850   28.5           5.7873938e-10  1.0112492e-06 -381512.91      2.8299094e-09  4.8541312      27.91351       3888.3214      1.3579687e-05  4.8222987e-05  9.401274e-05   6.5969235e-11  3.9380385e-12 -2.0267485    
      2860   28.6           5.9161095e-10  1.0113503e-06 -381512.91      2.8928486e-09  4.8541312      27.91351       3888.3214      1.3578581e-05  4.8223963e-05  9.4011533e-05  2.1583349e-10  1.0183152e-09 -2.0267485    
      2870   28.7           6.0459589e-10  1.0113583e-06 -381512.91      2.9563421e-09  4.8541312      27.91351       3888.3214      1.3576805e-05  4.8223098e-05  9.4011357e-05  1.6686188e-10  5.5716629e-10 -2.0267485    
      2880   28.8           6.1769432e-10  1.0112785e-06 -381512.91      3.0203906e-09  4.8541312      27.91351       3888.3214      1.3575009e-05  4.8223521e-05  9.4012261e-05  1.4878386e-11  1.9556764e-10 -2.0267485    
      2890   28.9           6.3090634e-10  1.0111186e-06 -381512.91      3.0849945e-09  4.8541312      27.91351       3888.3214      1.3577412e-05  4.822424e-05   9.4008691e-05 -1.4165934e-10 -9.1044319e-10 -2.0267485    
      2900   29             6.4423198e-10  1.0108788e-06 -381512.91      3.1501539e-09  4.8541312      27.91351       3888.3214      1.3576298e-05  4.8224549e-05  9.4010264e-05 -8.4418665e-11 -1.9423741e-10 -2.0267485    
      2910   29.1           6.5767123e-10  1.0105696e-06 -381512.91      3.215869e-09   4.8541312      27.91351       3888.3214      1.3576599e-05  4.822238e-05   9.4006991e-05 -9.689756e-11  -1.9785133e-10 -2.0267485    
      2920   29.2           6.7122405e-10  1.0101901e-06 -381512.91      3.2821393e-09  4.8541312      27.91351       3888.3214      1.3574306e-05  4.8224214e-05  9.4009006e-05  3.9161909e-10  1.1624844e-09 -2.0267485    
      2930   29.3           6.8489034e-10  1.0097434e-06 -381512.91      3.3489645e-09  4.8541312      27.91351       3888.3214      1.3575219e-05  4.8226106e-05  9.4007078e-05  1.9655755e-11  3.2021818e-10 -2.0267485    
      2940   29.4           6.9866998e-10  1.0092261e-06 -381512.91      3.4163439e-09  4.8541312      27.91351       3888.3214      1.3569853e-05  4.8225156e-05  9.4008231e-05 -1.0106789e-10 -4.8121049e-10 -2.0267485    
      2950   29.5           7.125628e-10   1.0086506e-06 -381512.91      3.4842768e-09  4.8541312      27.91351       3888.3214      1.3575124e-05  4.8223426e-05  9.4004899e-05 -7.6183694e-11 -2.7721577e-10 -2.0267485    
      2960   29.6           7.2656858e-10  1.0080179e-06 -381512.91      3.552762e-09   4.8541312      27.91351       3888.3214      1.3572105e-05  4.8226364e-05  9.4005954e-05 -2.34841e-10   -1.0690141e-09 -2.0267485    
      2970   29.7           7.4068709e-10  1.0073406e-06 -381512.91      3.6217984e-09  4.8541312      27.91351       3888.3214      1.3573905e-05  4.8224797e-05  9.4003182e-05  1.723746e-10   9.8539017e-10 -2.0267485    
      2980   29.8           7.5491806e-10  1.0065949e-06 -381512.91      3.6913847e-09  4.8541312      27.91351       3888.3214      1.3570497e-05  4.8224547e-05  9.4004275e-05  1.1096869e-10  2.1683926e-10 -2.0267485    
      2990   29.9           7.6926116e-10  1.0058071e-06 -381512.91      3.7615194e-09  4.8541312      27.91351       3888.3214      1.3568315e-05  4.822659e-05   9.4004414e-05  2.1613959e-11  2.129674e-10  -2.0267485    
      3000   30             7.8371608e-10  1.0049506e-06 -381512.91      3.8322008e-09  4.8541312      27.91351       3888.3214      1.3572038e-05  4.8227065e-05  9.4001964e-05 -3.8334768e-11 -3.5351729e-10 -2.0267485    
      3010   30.1           7.9828242e-10  1.0040753e-06 -381512.91      3.903427e-09   4.8541312      27.91351       3888.3214      1.3566824e-05  4.822608e-05   9.4002786e-05 -2.3538019e-10 -5.968816e-10  -2.0267485    
      3020   30.2           8.129598e-10   1.0031356e-06 -381512.91      3.9751962e-09  4.8541312      27.91351       3888.3214      1.3571052e-05  4.8224376e-05  9.3998639e-05  1.7400397e-10  3.9922069e-10 -2.0267485    
      3030   30.3           8.2774779e-10  1.002172e-06  -381512.91      4.0475063e-09  4.8541312      27.91351       3888.3214      1.3568039e-05  4.822777e-05   9.4001993e-05  1.6853718e-10  5.6016708e-10 -2.0267485    
      3040   30.4           8.4264593e-10  1.0011367e-06 -381512.91      4.1203549e-09  4.8541312      27.91351       3888.3214      1.3566259e-05  4.8228048e-05  9.3998584e-05 -6.2321224e-11  1.5633446e-10 -2.0267485    
      3050   30.5           8.5765375e-10  1.0000819e-06 -381512.91      4.1937399e-09  4.8541312      27.91351       3888.3214      1.3565374e-05  4.8225835e-05  9.3999465e-05 -1.1218216e-11 -3.6092205e-10 -2.0267485    
      3060   30.6           8.7277073e-10  9.9896885e-07 -381512.91      4.2676586e-09  4.8541312      27.91351       3888.3214      1.3566569e-05  4.8227558e-05  9.3997955e-05 -1.4343793e-10 -5.3668471e-10 -2.0267485    
      3070   30.7           8.8799636e-10  9.9783847e-07 -381512.91      4.3421086e-09  4.8541312      27.91351       3888.3214      1.3565919e-05  4.8228396e-05  9.399671e-05  -9.8522883e-11 -2.4974809e-10 -2.0267485    
      3080   30.8           9.0333007e-10  9.9666033e-07 -381512.91      4.4170871e-09  4.8541312      27.91351       3888.3214      1.3565527e-05  4.8227071e-05  9.3995912e-05  7.2846617e-11  4.025375e-10  -2.0267485    
      3090   30.9           9.1877129e-10  9.954465e-07  -381512.91      4.4925913e-09  4.8541312      27.91351       3888.3214      1.3564112e-05  4.8226751e-05  9.399445e-05   2.4041651e-10  6.2787407e-10 -2.0267485    
      3100   31             9.3431942e-10  9.9418533e-07 -381512.91      4.5686183e-09  4.8541312      27.91351       3888.3214      1.3560652e-05  4.8230216e-05  9.3997716e-05 -1.0769847e-10 -3.5431814e-10 -2.0267485    
      3110   31.1           9.4997385e-10  9.9289921e-07 -381512.91      4.6451651e-09  4.8541312      27.91351       3888.3214      1.3566041e-05  4.8227919e-05  9.3991359e-05  7.1506926e-11  2.7626772e-10 -2.0267485    
      3120   31.2           9.6573393e-10  9.9157321e-07 -381512.91      4.7222284e-09  4.8541312      27.91351       3888.3214      1.3559617e-05  4.8228392e-05  9.3994255e-05 -2.5932275e-10 -8.3487904e-10 -2.0267485    
      3130   31.3           9.8159901e-10  9.9022876e-07 -381512.91      4.7998052e-09  4.8541312      27.91351       3888.3214      1.356453e-05   4.8227771e-05  9.3990809e-05  6.0619587e-11  1.0703605e-10 -2.0267485    
      3140   31.4           9.975684e-10   9.8883059e-07 -381512.91      4.877892e-09   4.8541312      27.91351       3888.3214      1.3559547e-05  4.8229666e-05  9.3992809e-05  2.4419114e-10  6.8753346e-10 -2.0267485    
      3150   31.5           1.0136414e-09  9.8741262e-07 -381512.91      4.9564855e-09  4.8541312      27.91351       3888.3214      1.3558744e-05  4.8231056e-05  9.3990445e-05 -2.4815316e-10 -2.7105077e-10 -2.0267485    
      3160   31.6           1.0298173e-09  9.8594487e-07 -381512.91      5.0355822e-09  4.8541312      27.91351       3888.3214      1.355988e-05   4.8227894e-05  9.399028e-05   3.2557693e-10  5.0032267e-10 -2.0267485    
      3170   31.7           1.0460954e-09  9.8446556e-07 -381512.91      5.1151784e-09  4.8541312      27.91351       3888.3214      1.3558987e-05  4.822954e-05   9.3989183e-05 -3.0145713e-10 -7.2398868e-10 -2.0267485    
      3180   31.8           1.0624749e-09  9.8294748e-07 -381512.91      5.1952705e-09  4.8541312      27.91351       3888.3214      1.3559619e-05  4.8230895e-05  9.398794e-05  -1.6669478e-10 -6.5949722e-10 -2.0267485    
      3190   31.9           1.078955e-09   9.8140165e-07 -381512.91      5.2758547e-09  4.8541312      27.91351       3888.3214      1.3556181e-05  4.8229852e-05  9.3987678e-05  1.8995127e-10  6.9372142e-10 -2.0267485    
      3200   32             1.095535e-09   9.798167e-07  -381512.91      5.3569271e-09  4.8541312      27.91351       3888.3214      1.3556566e-05  4.8230002e-05  9.3986426e-05  5.3928568e-11 -3.0066034e-11 -2.0267485    
      3210   32.1           1.112214e-09   9.782075e-07  -381512.91      5.438484e-09   4.8541312      27.91351       3888.3214      1.3554529e-05  4.8231529e-05  9.3988067e-05  8.6398142e-11  5.466554e-10  -2.0267485    
      3220   32.2           1.1289912e-09  9.7656765e-07 -381512.91      5.5205211e-09  4.8541312      27.91351       3888.3214      1.3557009e-05  4.8231505e-05  9.3983226e-05 -3.6511271e-11 -1.3051438e-10 -2.0267485    
      3230   32.3           1.1458659e-09  9.7490724e-07 -381512.91      5.6030345e-09  4.8541312      27.91351       3888.3214      1.355334e-05   4.8230156e-05  9.3985415e-05 -2.0075186e-10 -8.7065226e-10 -2.0267485    
      3240   32.4           1.1628371e-09  9.7320882e-07 -381512.91      5.68602e-09    4.8541312      27.91351       3888.3214      1.3553884e-05  4.8231467e-05  9.398232e-05   2.7870124e-11  1.9489375e-10 -2.0267485    
      3250   32.5           1.179904e-09   9.7148918e-07 -381512.91      5.7694735e-09  4.8541312      27.91351       3888.3214      1.3553001e-05  4.8232724e-05  9.3984358e-05  2.4832526e-11 -9.5668951e-12 -2.0267485    
      3260   32.6           1.1970657e-09  9.6973059e-07 -381512.91      5.8533905e-09  4.8541312      27.91351       3888.3214      1.3551417e-05  4.8232319e-05  9.3980776e-05 -7.5326138e-11  3.8073514e-10 -2.0267485    
[...]
     15580   155.8          1.630951e-11   1.0912866e-07 -381512.91      7.9749948e-11  4.8541312      27.91351       3888.3214      4.255857e-05  -0.00014350056  0.00017238813  1.011273e-10   1.1698919e-10 -2.0267658    
     15590   155.9          1.6536195e-11  1.0892237e-07 -381512.91      8.0858387e-11  4.8541312      27.91351       3888.3214      4.2567025e-05 -0.00014350111  0.00017238422  2.2972398e-10  1.1424431e-09 -2.0267658    
     15600   156            1.6764002e-11  1.0871359e-07 -381512.91      8.1972314e-11  4.8541312      27.91351       3888.3214      4.255418e-05  -0.00014349833  0.00017238926  1.6431784e-11 -1.3605545e-10 -2.0267658    
     15610   156.1          1.6992919e-11  1.0851533e-07 -381512.91      8.309167e-11   4.8541312      27.91351       3888.3214      4.2569063e-05 -0.00014350565  0.00017238146  1.1419704e-10  4.2661815e-10 -2.0267658    
     15620   156.2          1.7222935e-11  1.0830009e-07 -381512.91      8.4216396e-11  4.8541312      27.91351       3888.3214      4.2559442e-05 -0.00014349779  0.00017238927 -3.3768817e-10 -1.248442e-09  -2.0267658    
     15630   156.3          1.7454037e-11  1.0809641e-07 -381512.91      8.5346435e-11  4.8541312      27.91351       3888.3214      4.2562156e-05 -0.00014350101  0.00017238457 -7.0920152e-11 -2.2840354e-10 -2.0267658    
     15640   156.4          1.7686213e-11  1.078706e-07  -381512.91      8.6481728e-11  4.8541312      27.91351       3888.3214      4.256302e-05  -0.00014350221  0.00017238599  3.831174e-10   1.2560736e-09 -2.0267658    
     15650   156.5          1.7919452e-11  1.0766557e-07 -381512.91      8.7622215e-11  4.8541312      27.91351       3888.3214      4.2558898e-05 -0.00014350048  0.00017238742 -1.2787755e-10 -1.8239493e-10 -2.0267658    
     15660   156.6          1.8153741e-11  1.0744741e-07 -381512.91      8.8767836e-11  4.8541312      27.91351       3888.3214      4.2564796e-05 -0.00014349987  0.00017238477  9.6299284e-11  3.3474138e-10 -2.0267658    
     15670   156.7          1.8389068e-11  1.0724217e-07 -381512.91      8.9918532e-11  4.8541312      27.91351       3888.3214      4.2563208e-05 -0.00014350219  0.00017238625 -2.940095e-10  -1.4113722e-09 -2.0267658    
     15680   156.8          1.862542e-11   1.0701536e-07 -381512.91      9.1074243e-11  4.8541312      27.91351       3888.3214      4.2559658e-05 -0.00014350159  0.00017238502 -2.6577575e-10 -4.4421237e-10 -2.0267658    
     15690   156.9          1.8862785e-11  1.0680165e-07 -381512.91      9.2234909e-11  4.8541312      27.91351       3888.3214      4.2563744e-05 -0.00014350011  0.00017238669  3.7788964e-10  9.1030544e-10 -2.0267658    
     15700   157            1.9101152e-11  1.0657448e-07 -381512.91      9.3400468e-11  4.8541312      27.91351       3888.3214      4.25597e-05   -0.00014349987  0.0001723865   8.5792108e-11  6.3569477e-10 -2.0267658    
     15710   157.1          1.9340506e-11  1.0636631e-07 -381512.91      9.457086e-11   4.8541312      27.91351       3888.3214      4.2563969e-05 -0.00014350244  0.00017238419  2.0795902e-11 -8.6269518e-12 -2.0267658    
     15720   157.2          1.9580837e-11  1.0614176e-07 -381512.91      9.5746025e-11  4.8541312      27.91351       3888.3214      4.2560579e-05 -0.00014350074  0.00017238736 -2.3467321e-10 -8.3249137e-10 -2.0267658    
     15730   157.3          1.9822131e-11  1.0592412e-07 -381512.91      9.69259e-11    4.8541312      27.91351       3888.3214      4.256393e-05  -0.00014350074  0.00017238415 -1.4931764e-10 -6.2556743e-10 -2.0267658    
     15740   157.4          2.0064376e-11  1.0569552e-07 -381512.91      9.8110426e-11  4.8541312      27.91351       3888.3214      4.2559278e-05 -0.00014349969  0.00017238905  1.3084828e-10  4.348413e-10  -2.0267658    
     15750   157.5          2.030756e-11   1.0547618e-07 -381512.91      9.9299542e-11  4.8541312      27.91351       3888.3214      4.2562977e-05 -0.00014350279  0.00017238252  2.8882258e-10  1.1461272e-09 -2.0267658    
     15760   157.6          2.055167e-11   1.0524995e-07 -381512.91      1.0049318e-10  4.8541312      27.91351       3888.3214      4.2561517e-05 -0.00014349984  0.00017238768 -5.4341497e-11 -7.71942e-11   -2.0267658    
     15770   157.7          2.0796693e-11  1.0503683e-07 -381512.91      1.0169129e-10  4.8541312      27.91351       3888.3214      4.2561125e-05 -0.00014349968  0.0001723866  -2.2285065e-10 -9.215456e-10  -2.0267658    
     15780   157.8          2.1042617e-11  1.0480034e-07 -381512.91      1.0289381e-10  4.8541312      27.91351       3888.3214      4.2565706e-05 -0.00014350386  0.00017238276  6.0041913e-11 -1.0627302e-10 -2.0267658    
     15790   157.9          2.1289429e-11  1.0458693e-07 -381512.91      1.0410067e-10  4.8541312      27.91351       3888.3214      4.2555122e-05 -0.00014349765  0.00017238967 -2.6814316e-10 -4.1643273e-10 -2.0267658    
     15800   158            2.1537117e-11  1.0434802e-07 -381512.91      1.0531181e-10  4.8541312      27.91351       3888.3214      4.2565865e-05 -0.00014350276  0.00017238308  4.7843184e-10  1.3371586e-09 -2.0267658    
     15810   158.1          2.1785668e-11  1.0413631e-07 -381512.91      1.0652717e-10  4.8541312      27.91351       3888.3214      4.2560688e-05 -0.00014349927  0.00017238842 -1.0087241e-10 -1.3376637e-10 -2.0267658    
     15820   158.2          2.203507e-11   1.0390828e-07 -381512.91      1.0774669e-10  4.8541312      27.91351       3888.3214      4.2560578e-05 -0.00014350122  0.00017238369 -2.2236549e-10 -8.0780435e-10 -2.0267658    
     15830   158.3          2.228531e-11   1.0368256e-07 -381512.91      1.0897031e-10  4.8541312      27.91351       3888.3214      4.2564544e-05 -0.00014350353  0.00017238542  6.8975764e-11  1.066228e-10  -2.0267658    
     15840   158.4          2.2536376e-11  1.0345362e-07 -381512.91      1.1019797e-10  4.8541312      27.91351       3888.3214      4.2559802e-05 -0.00014349701  0.00017238767 -3.2869253e-10 -9.0390951e-10 -2.0267658    
     15850   158.5          2.2788255e-11  1.0322953e-07 -381512.91      1.114296e-10   4.8541312      27.91351       3888.3214      4.2560421e-05 -0.00014350171  0.00017238529  2.8774184e-10  7.9541492e-10 -2.0267658    
     15860   158.6          2.3040935e-11  1.030034e-07  -381512.91      1.1266515e-10  4.8541312      27.91351       3888.3214      4.256313e-05  -0.00014350192  0.00017238513  2.6928749e-12  2.8727154e-10 -2.0267658    
     15870   158.7          2.3294403e-11  1.0278389e-07 -381512.91      1.1390455e-10  4.8541312      27.91351       3888.3214      4.2558113e-05 -0.00014349953  0.00017238767 -1.4596369e-10 -6.5282173e-10 -2.0267658    
     15880   158.8          2.3548646e-11  1.0254767e-07 -381512.91      1.1514775e-10  4.8541312      27.91351       3888.3214      4.2567927e-05 -0.00014350148  0.0001723829   5.4950552e-11  3.0955198e-10 -2.0267658    
     15890   158.9          2.3803653e-11  1.0232635e-07 -381512.91      1.1639467e-10  4.8541312      27.91351       3888.3214      4.2556476e-05 -0.00014350009  0.00017238804 -1.2991814e-10 -7.5451793e-10 -2.0267658    
     15900   159            2.4059411e-11  1.0209112e-07 -381512.91      1.1764527e-10  4.8541312      27.91351       3888.3214      4.2563835e-05 -0.00014350304  0.0001723828   1.1619137e-10  7.6978256e-10 -2.0267658    
     15910   159.1          2.4315907e-11  1.0187521e-07 -381512.91      1.1889948e-10  4.8541312      27.91351       3888.3214      4.2557963e-05 -0.00014349687  0.00017239063  1.5880518e-10  2.6596076e-10 -2.0267658    
     15920   159.2          2.4573129e-11  1.0164796e-07 -381512.91      1.2015724e-10  4.8541312      27.91351       3888.3214      4.2565514e-05 -0.00014350306  0.00017238172 -4.1640784e-11 -3.7135866e-11 -2.0267658    
     15930   159.3          2.4831064e-11  1.0142194e-07 -381512.91      1.2141849e-10  4.8541312      27.91351       3888.3214      4.2558828e-05 -0.00014350049  0.0001723865  -6.5429049e-11 -1.9137841e-10 -2.0267658    
     15940   159.4          2.5089701e-11  1.0118698e-07 -381512.91      1.2268317e-10  4.8541312      27.91351       3888.3214      4.2564786e-05 -0.00014350241  0.00017238477 -1.0909084e-10 -5.5060694e-10 -2.0267658    
     15950   159.5          2.5349027e-11  1.009577e-07  -381512.91      1.2395122e-10  4.8541312      27.91351       3888.3214      4.256056e-05  -0.00014349891  0.00017238572  1.0831361e-10  6.3716006e-10 -2.0267658    
     15960   159.6          2.560903e-11   1.0073813e-07 -381512.91      1.2522257e-10  4.8541312      27.91351       3888.3214      4.2559427e-05 -0.00014349977  0.00017238734  4.5829319e-11 -1.0246328e-10 -2.0267658    
     15970   159.7          2.5869696e-11  1.0050963e-07 -381512.91      1.2649718e-10  4.8541312      27.91351       3888.3214      4.2562155e-05 -0.00014350319  0.0001723832   4.0674486e-11  4.1440158e-10 -2.0267658    
     15980   159.8          2.6131015e-11  1.0028952e-07 -381512.91      1.2777497e-10  4.8541312      27.91351       3888.3214      4.2561803e-05 -0.00014349883  0.00017238756 -1.8310091e-10 -8.3438746e-10 -2.0267658    
     15990   159.9          2.6392974e-11  1.0004547e-07 -381512.91      1.2905589e-10  4.8541312      27.91351       3888.3214      4.2562238e-05 -0.00014350099  0.00017238514  1.5462092e-13  7.6039527e-11 -2.0267658    
     16000   160            2.665556e-11   9.9820041e-08 -381512.91      1.3033988e-10  4.8541312      27.91351       3888.3214      4.2564053e-05 -0.00014350289  0.00017238256  1.949221e-10   5.1491745e-10 -2.0267658    
     16010   160.1          2.6918761e-11  9.9591101e-08 -381512.91      1.3162687e-10  4.8541312      27.91351       3888.3214      4.2555313e-05 -0.00014349816  0.00017239066 -6.3104176e-11  2.2511373e-11 -2.0267658    
     16020   160.2          2.7182565e-11  9.9368951e-08 -381512.91      1.3291682e-10  4.8541312      27.91351       3888.3214      4.2567087e-05 -0.00014350263  0.00017238159  1.3211571e-10  3.2845214e-10 -2.0267658    
     16030   160.3          2.744696e-11   9.9138929e-08 -381512.91      1.3420965e-10  4.8541312      27.91351       3888.3214      4.2557821e-05 -0.00014349824  0.00017238918 -3.2636023e-10 -1.0458247e-09 -2.0267658    
     16040   160.4          2.7711933e-11  9.8900678e-08 -381512.91      1.3550531e-10  4.8541312      27.91351       3888.3214      4.2563569e-05 -0.00014350315  0.00017238172 -1.2587477e-10 -4.8175339e-10 -2.0267658    
     16050   160.5          2.7977473e-11  9.8665551e-08 -381512.91      1.3680374e-10  4.8541312      27.91351       3888.3214      4.2562699e-05 -0.00014350191  0.00017238664  1.6541179e-10  5.3180807e-10 -2.0267658    
     16060   160.6          2.8243566e-11  9.8441599e-08 -381512.91      1.3810488e-10  4.8541312      27.91351       3888.3214      4.2558877e-05 -0.00014349673  0.00017238775 -4.8114038e-11 -8.4806931e-11 -2.0267658    
     16070   160.7          2.8510202e-11  9.820828e-08  -381512.91      1.3940867e-10  4.8541312      27.91351       3888.3214      4.2563008e-05 -0.00014350353  0.00017238293  2.5633949e-10  9.349695e-10  -2.0267658    
     16080   160.8          2.8777366e-11  9.7985231e-08 -381512.91      1.4071505e-10  4.8541312      27.91351       3888.3214      4.2560147e-05 -0.00014350042  0.00017238762 -2.888361e-10  -1.0668452e-09 -2.0267658    
     16090   160.9          2.9045048e-11  9.7734965e-08 -381512.91      1.4202395e-10  4.8541312      27.91351       3888.3214      4.2562752e-05 -0.00014350051  0.00017238411  4.2752556e-11  7.5460166e-11 -2.0267658    
     16100   161            2.9313235e-11  9.750473e-08  -381512.91      1.4333533e-10  4.8541312      27.91351       3888.3214      4.2562524e-05 -0.00014350014  0.00017238612  5.9685717e-11  4.6968808e-11 -2.0267658    
     16110   161.1          2.9581914e-11  9.7263791e-08 -381512.91      1.4464911e-10  4.8541312      27.91351       3888.3214      4.2560371e-05 -0.00014350164  0.00017238471  1.1045549e-10  6.8532811e-10 -2.0267658    
     16120   161.2          2.9851074e-11  9.7044333e-08 -381512.91      1.4596524e-10  4.8541312      27.91351       3888.3214      4.2559615e-05 -0.00014350136  0.00017238585  1.4891653e-10  3.5661802e-10 -2.0267658    
     16130   161.3          3.0120701e-11  9.6794684e-08 -381512.91      1.4728366e-10  4.8541312      27.91351       3888.3214      4.2563624e-05 -0.000143498    0.00017238607 -1.8328796e-10 -5.6568385e-10 -2.0267658    
     16140   161.4          3.0390785e-11  9.6563193e-08 -381512.91      1.4860431e-10  4.8541312      27.91351       3888.3214      4.2559893e-05 -0.00014350226  0.00017238451 -1.4170492e-10 -6.1667983e-10 -2.0267658    
     16150   161.5          3.0661311e-11  9.6308148e-08 -381512.91      1.4992713e-10  4.8541312      27.91351       3888.3214      4.2563261e-05 -0.00014350211  0.00017238389 -1.775433e-10  -3.3437405e-10 -2.0267658    
     16160   161.6          3.0932268e-11  9.6080136e-08 -381512.91      1.5125205e-10  4.8541312      27.91351       3888.3214      4.2558908e-05 -0.00014349944  0.00017238775  2.7763171e-10  5.3908183e-10 -2.0267658    
     16170   161.7          3.1203644e-11  9.5833136e-08 -381512.91      1.5257902e-10  4.8541312      27.91351       3888.3214      4.2565282e-05 -0.00014350054  0.00017238173  3.7785103e-11  7.0723446e-10 -2.0267658    
     16180   161.8          3.1475425e-11  9.5598922e-08 -381512.91      1.5390797e-10  4.8541312      27.91351       3888.3214      4.2554452e-05 -0.00014349901  0.00017239066 -9.5262463e-11 -6.2030455e-10 -2.0267658    
     16190   161.9          3.17476e-11    9.53415e-08   -381512.91      1.5523884e-10  4.8541312      27.91351       3888.3214      4.2569245e-05 -0.00014350587  0.00017237817 -2.1941141e-11 -1.8015587e-12 -2.0267658    
     16200   162            3.2020155e-11  9.5098937e-08 -381512.91      1.5657158e-10  4.8541312      27.91351       3888.3214      4.2552726e-05 -0.00014349461  0.0001723923  -2.6018842e-10 -1.1493536e-09 -2.0267659    
     16210   162.1          3.2293079e-11  9.4839965e-08 -381512.91      1.5790611e-10  4.8541312      27.91351       3888.3214      4.256951e-05  -0.00014350422  0.00017237996  2.0165768e-10  9.4786671e-10 -2.0267658    
     16220   162.2          3.2566357e-11  9.4608043e-08 -381512.91      1.5924239e-10  4.8541312      27.91351       3888.3214      4.2555021e-05 -0.00014349982  0.00017238726  3.7266726e-12  1.435804e-10  -2.0267658    
     16230   162.3          3.2839979e-11  9.4340149e-08 -381512.91      1.6058034e-10  4.8541312      27.91351       3888.3214      4.2561948e-05 -0.00014350029  0.00017238626  4.3991969e-11 -8.348885e-11  -2.0267658    
     16240   162.4          3.311393e-11   9.4099439e-08 -381512.91      1.619199e-10   4.8541312      27.91351       3888.3214      4.2564283e-05 -0.00014350169  0.00017238296  5.9755814e-12  8.1892565e-11 -2.0267658    
     16250   162.5          3.3388199e-11  9.3823278e-08 -381512.91      1.6326102e-10  4.8541312      27.91351       3888.3214      4.2558568e-05 -0.00014349868  0.00017238781 -3.113414e-10  -1.1339188e-09 -2.0267658    
     16260   162.6          3.3662772e-11  9.358165e-08  -381512.91      1.6460362e-10  4.8541312      27.91351       3888.3214      4.2563768e-05 -0.00014350382  0.00017238203  1.640667e-10   7.9228313e-10 -2.0267658    
     16270   162.7          3.3937635e-11  9.3318292e-08 -381512.91      1.6594764e-10  4.8541312      27.91351       3888.3214      4.2561159e-05 -0.00014349992  0.00017238626  1.7689908e-10  2.6127319e-10 -2.0267658    
     16280   162.8          3.4212778e-11  9.3061858e-08 -381512.91      1.6729302e-10  4.8541312      27.91351       3888.3214      4.2557813e-05 -0.00014349706  0.00017238884 -1.4066436e-10  1.0065226e-11 -2.0267658    
     16290   162.9          3.4488185e-11  9.2788567e-08 -381512.91      1.6863971e-10  4.8541312      27.91351       3888.3214      4.2566526e-05 -0.00014350532  0.00017237938  3.9831436e-11 -1.7941844e-10 -2.0267658    
     16300   163            3.4763844e-11  9.2525272e-08 -381512.91      1.6998762e-10  4.8541312      27.91351       3888.3214      4.2554763e-05 -0.00014349804  0.0001723908  -2.4688472e-10 -8.4062539e-10 -2.0267658    
     16310   163.1          3.5039741e-11  9.2254731e-08 -381512.91      1.713367e-10   4.8541312      27.91351       3888.3214      4.257e-05     -0.00014350316  0.00017237981  1.8630291e-10  5.2301771e-10 -2.0267658    
     16320   163.2          3.5315864e-11  9.1994631e-08 -381512.91      1.7268688e-10  4.8541312      27.91351       3888.3214      4.255411e-05  -0.00014349707  0.00017239042  6.8304225e-11  4.7888494e-10 -2.0267658    
     16330   163.3          3.5592199e-11  9.1712062e-08 -381512.91      1.740381e-10   4.8541312      27.91351       3888.3214      4.2565104e-05 -0.00014350361  0.00017238131 -2.7574388e-11  1.2289489e-10 -2.0267658    
     16331   163.31         3.5619844e-11  9.1687406e-08 -381512.91      1.7417327e-10  4.8541312      27.91351       3888.3214      4.2565713e-05 -0.00014350371  0.00017238184  8.6559518e-11  3.8893533e-10 -2.0267658    
Loop time of 1448.16 on 2 procs for 2000 steps with 37830 atoms

97.9% CPU use with 1 MPI tasks x 2 OpenMP threads

Minimization stats:
  Stopping criterion = max iterations
  Energy initial, next-to-last, final = 
     -381512.911498682  -381512.911498688  -381512.911498688
  Force two-norm initial, final = 1.481912e-05 9.1687406e-08
  Force max component initial, final = 2.8398947e-07 1.1907008e-09
  Final line search alpha, max atom move = 0 0
  Iterations, force evaluations = 2000 2002

MPI task timing breakdown:
Section |  min time  |  avg time  |  max time  |%varavg| %total
---------------------------------------------------------------
Pair    | 1442.6     | 1442.6     | 1442.6     |   0.0 | 99.62
Neigh   | 0          | 0          | 0          |   0.0 |  0.00
Comm    | 3.7178     | 3.7178     | 3.7178     |   0.0 |  0.26
Output  | 0.075127   | 0.075127   | 0.075127   |   0.0 |  0.01
Modify  | 0          | 0          | 0          |   0.0 |  0.00
Other   |            | 1.77       |            |       |  0.12

Nlocal:          37830 ave       37830 max       37830 min
Histogram: 1 0 0 0 0 0 0 0 0 0
Nghost:         214728 ave      214728 max      214728 min
Histogram: 1 0 0 0 0 0 0 0 0 0
Neighs:              0 ave           0 max           0 min
Histogram: 1 0 0 0 0 0 0 0 0 0
FullNghs:  4.64436e+06 ave 4.64436e+06 max 4.64436e+06 min
Histogram: 1 0 0 0 0 0 0 0 0 0

Total # of neighbors = 4644360
Ave neighs/atom = 122.76923
Neighbor list builds = 0
Dangerous builds = 0
System init for write_data ...
System init for write_data ...
- step: 16331
  atoms: 37830
  temp: 3.5619843872911301129e-11
  press: 2.3814614132574471971e-05
  pe: -381512.9114986876375
  ke: 1.7417327231037014037e-10
  etotal: -381512.91149868746288
  vol: 526851.38940226158593
  avecx: 4.8541312335692179403
  avecy: 0
  avecz: 0
  bvecx: 0
  bvecy: 27.913510468891150396
  bvecz: 0
  cvecx: 0
  cvecy: 0
  cvecz: 3888.3214253330575048
  lx: 4.8541312335692179403
  ly: 27.913510468891150396
  lz: 3888.3214253330575048
  cella: 4.8541312335692179403
  cellb: 27.913510468891150396
  cellc: 3888.3214253330575048
  cellalpha: 90
  cellbeta: 90
  cellgamma: 90
  pxx: 4.2565713380458678914e-05
  pyy: -0.00014350371297044712399
  pzz: 0.00017238184198771188131
  pxy: 8.6559518238407090483e-11
  pyz: -2.0267658408490625277
  pxz: 3.889353306354862963e-10
  xlo: -8.4684613810226618796e-08
  xhi: 4.8541311488846039524
  ylo: 2.7427644700900348306e-06
  yhi: 27.913513211655619273
  zlo: -0.00035600781452077622045
  zhi: 3888.3210693252431156
  xy: 0
  xz: 0
  yz: 0

[GRACE:debug, proc #0]: Data preparation timer: 1.40167e+09 mcs, graph execution time: 1.20941e+10 mcs, data preparation time fraction: 10.39 %
Total wall time: 3:47:05
