
thermo          10
thermo_style    custom step time temp fnorm pe ke lx ly lz pxx pyy pzz pxy pxz pyz

timestep        0.001

min_style       fire
minimize        0.0 1.0e-8 2000 4000

CITE-CITE-CITE-CITE-CITE-CITE-CITE-CITE-CITE-CITE-CITE-CITE-CITE

Your simulation uses code contributions which should be cited:

- Type Label Framework: https://doi.org/10.1021/acs.jpcb.3c08419

@Article{Gissinger24,
 author = {Jacob R. Gissinger, Ilia Nikiforov, Yaser Afshar, Brendon Waters, Moon-ki Choi, Daniel S. Karls, Alexander Stukowski, Wonpil Im, Hendrik Heinz, Axel Kohlmeyer, and Ellad B. Tadmor},
 title = {Type Label Framework for Bonded Force Fields in LAMMPS},
 journal = {J. Phys. Chem. B},
 year =    2024,
 volume =  128,
 number =  13,
 pages =   {3282–-3297}
}

CITE-CITE-CITE-CITE-CITE-CITE-CITE-CITE-CITE-CITE-CITE-CITE-CITE

Switching to 'neigh_modify every 1 delay 0 check yes' setting during minimization
Neighbor list info ...
  update: every = 1 steps, delay = 0 steps, check = yes
  max neighbors/atom: 2000, page size: 100000
  master list distance cutoff = 7.4
  ghost atom cutoff = 7.4
  binsize = 3.7, bins = 2 2 54
  1 neighbor lists, perpetual/occasional/extra = 1 0 0
  (1) pair grace, perpetual
      attributes: full, newton on
      pair build: full/bin/atomonly
      stencil: full/bin/3d
      bin: standard
  Parameters for fire:
    dmax  delaystep dtgrow dtshrink alpha0 alphashrink tmax tmin   integrator   halfstepback   abcfire  
     0.1     20      1.1     0.5     0.25     0.99      10  0.02 eulerimplicit      yes          no     
[GRACE] Atoms padding: new num. of atoms = 315 (incl. 0.952% fake atoms)
[GRACE] Neighbours padding: extending new num. of neighbours = 21525 (incl. 0.990% fake neighbours)
Per MPI rank memory allocation (min/avg/max) = 4.486 | 4.486 | 4.486 Mbytes
   Step          Time           Temp          Fnorm          PotEng         KinEng           Lx             Ly             Lz            Pxx            Pyy            Pzz            Pxy            Pxz            Pyz      
         0   0              0              45.883178     -3057.0938      0              4.8541311      4.2038008      199.19683      167150.39      167150.39      338997.74      1.4853473e-05  6.5291005e-11 -8.8261626e-11
        10   0.01           250.42512      39.974649     -3071.4103      10.067066      4.8541311      4.2038008      199.19683      151640.51      151640.51      333044.47      1.453835e-05  -1.2187313e-10  3.0487888e-11
        20   0.02           759.13949      26.646465     -3099.128       30.517336      4.8541311      4.2038008      199.19683      122955.75      122955.75      321519.48      1.3867672e-05 -8.044641e-12   1.7439561e-10
        30   0.070738431    1524.8472      4.0902035     -3126.1598      61.298711      4.8541311      4.2038008      199.19683      105562.6       105562.6       299247.42      1.2353327e-05  2.4648745e-11  1.1616602e-10
        40   0.057062334    1.6077745      2.9359114     -3126.8198      0.064632381    4.8541311      4.2038008      199.19683      109737.51      109737.51      240620.56      1.1942769e-05 -7.8341995e-11  5.0598135e-11
        50   0.071327918    6.485056       1.6620827     -3127.0147      0.26069864     4.8541311      4.2038008      199.19683      109740.41      109740.41      240819.87      1.1966747e-05 -5.0943546e-11  4.0665334e-11
        60   0.075817054    0.00011665574  0.20113043    -3127.1079      4.6895496e-06  4.8541311      4.2038008      199.19683      110027.73      110027.73      240799.56      1.1996724e-05 -5.1987728e-11 -1.230501e-10 
        70   0.08845323     0.0089636301   0.16682002    -3127.1084      0.00036033708  4.8541311      4.2038008      199.19683      110027.95      110027.95      240783.86      1.1995183e-05 -3.6325327e-11 -1.8099194e-10
        80   0.10108941     0.025417939    0.092036456   -3127.109       0.0010217987   4.8541311      4.2038008      199.19683      110025.45      110025.45      240758.4       1.1990945e-05 -1.3054246e-10 -1.9157323e-10
        90   0.12189044     2.1728693e-06  0.016602658   -3127.1094      8.7349141e-08  4.8541311      4.2038008      199.19683      110033.62      110033.62      240715.02      1.1983196e-05  9.6010906e-11  4.9646558e-11
       100   0.13543382     6.8708166e-05  0.01386734    -3127.1094      2.7620618e-06  4.8541311      4.2038008      199.19683      110034.33      110034.33      240715.14      1.1983172e-05  5.1728596e-11  1.0849257e-10
       110   0.16387493     0.0001893918   0.0085994295  -3127.1094      7.6135323e-06  4.8541311      4.2038008      199.19683      110036.53      110036.53      240714.16      1.198311e-05   4.3858344e-11  9.7112716e-11
       120   0.46369021     0.00017518388  0.0019727523  -3127.1094      7.0423753e-06  4.8541311      4.2038008      199.19683      110043.65      110043.65      240707.37      1.1981634e-05  8.1567512e-11 -5.707179e-12 
       130   1.3            3.5620219e-05  0.0010592215  -3127.1094      1.4319294e-06  4.8541311      4.2038008      199.19683      110043.12      110043.12      240707.73      1.1979127e-05  7.2460988e-11  4.1560223e-11
       140   1.4            2.4488158e-05  0.00045765296 -3127.1094      9.8442161e-07  4.8541311      4.2038008      199.19683      110043.58      110043.58      240706.79      1.1977163e-05  3.6320168e-11 -1.8855943e-10
       150   1.5            2.47642e-05    0.00022297539 -3127.1094      9.9551848e-07  4.8541311      4.2038008      199.19683      110043.68      110043.68      240706.73      1.1974745e-05  2.0999859e-11  6.7950276e-11
       160   1.6            9.8038069e-06  9.6691882e-05 -3127.1094      3.9411211e-07  4.8541311      4.2038008      199.19683      110043.85      110043.85      240706.54      1.1971521e-05  1.8038775e-10 -1.0959538e-10
       170   0.425          3.1780085e-11  3.6332388e-05 -3127.1094      1.2775564e-12  4.8541311      4.2038008      199.19683      110043.78      110043.78      240706.63      1.1971527e-05 -2.1276465e-10  4.1069442e-11
       180   0.45           9.3310412e-10  3.0734441e-05 -3127.1094      3.7510697e-11  4.8541311      4.2038008      199.19683      110043.78      110043.78      240706.63      1.1971474e-05 -1.5360015e-10  2.9396263e-11
       190   0.5225         2.6327716e-09  2.8372096e-05 -3127.1094      1.0583717e-10  4.8541311      4.2038008      199.19683      110043.77      110043.77      240706.64      1.1971382e-05 -1.5053699e-11  1.7165147e-11
       200   1.4265584      8.2158151e-09  2.5934579e-05 -3127.1094      3.3027499e-10  4.8541311      4.2038008      199.19683      110043.77      110043.77      240706.64      1.197127e-05  -6.8879401e-11  5.5729253e-11
       210   2.1            2.5907352e-08  1.9166946e-05 -3127.1094      1.0414731e-09  4.8541311      4.2038008      199.19683      110043.77      110043.77      240706.64      1.1970723e-05 -4.0347491e-11 -3.1212389e-11
       220   2.2            4.5189791e-08  1.1632884e-05 -3127.1094      1.8166253e-09  4.8541311      4.2038008      199.19683      110043.77      110043.77      240706.64      1.1969721e-05  5.4788313e-11  1.6257041e-11
       230   2.3            3.7538808e-08  2.0699529e-05 -3127.1094      1.5090565e-09  4.8541311      4.2038008      199.19683      110043.77      110043.77      240706.64      1.1967925e-05 -1.2786699e-10 -2.2018134e-10
       240   1.2            8.0005085e-11  3.8876352e-06 -3127.1094      3.2161968e-12  4.8541311      4.2038008      199.19683      110043.77      110043.77      240706.64      1.1967559e-05  7.7019116e-12 -1.6503263e-10
       250   0.625          4.2054671e-12  2.5498408e-06 -3127.1094      1.6905938e-13  4.8541311      4.2038008      199.19683      110043.77      110043.77      240706.64      1.1967484e-05  2.2230449e-11 -9.5376504e-11
       260   0.65           1.3270653e-11  2.3341921e-06 -3127.1094      5.3347898e-13  4.8541311      4.2038008      199.19683      110043.77      110043.77      240706.64      1.196746e-05   9.9774447e-12 -2.9954219e-11
       270   1.5916147      3.9312815e-11  2.2349359e-06 -3127.1094      1.5803714e-12  4.8541311      4.2038008      199.19683      110043.77      110043.77      240706.64      1.1967353e-05 -5.6538859e-11 -1.2767193e-11
       280   2.8            1.512913e-10   1.9034476e-06 -3127.1094      6.0818958e-12  4.8541311      4.2038008      199.19683      110043.77      110043.77      240706.64      1.1967034e-05  5.2250294e-11  3.2957296e-11
       290   2.9            3.1827112e-10  1.3225897e-06 -3127.1094      1.2794469e-11  4.8541311      4.2038008      199.19683      110043.77      110043.77      240706.64      1.1966467e-05 -6.3365536e-11  2.8335084e-11
       300   3              4.5289258e-10  7.7531051e-07 -3127.1094      1.8206239e-11  4.8541311      4.2038008      199.19683      110043.77      110043.77      240706.64      1.1965203e-05  1.10102e-10   -1.5950803e-11
       310   3.1            1.1083623e-10  7.8906073e-07 -3127.1094      4.4556058e-12  4.8541311      4.2038008      199.19683      110043.77      110043.77      240706.64      1.1962102e-05 -3.1210137e-10  1.9742101e-10
       320   1.6            8.9434031e-14  1.8360132e-07 -3127.1094      3.5952396e-15  4.8541311      4.2038008      199.19683      110043.77      110043.77      240706.64      1.1963002e-05 -6.4153226e-11  1.0412865e-10
       330   1.65           2.4274116e-13  1.4587815e-07 -3127.1094      9.7581715e-15  4.8541311      4.2038008      199.19683      110043.77      110043.77      240706.64      1.196309e-05   1.382839e-11   3.9351834e-11
       340   3.3128191      6.2104357e-13  1.411834e-07  -3127.1094      2.4965892e-14  4.8541311      4.2038008      199.19683      110043.77      110043.77      240706.64      1.1962847e-05 -7.4305715e-11  1.5795434e-10
       350   3.5            1.5203646e-12  1.3084082e-07 -3127.1094      6.1118511e-14  4.8541311      4.2038008      199.19683      110043.77      110043.77      240706.64      1.1962499e-05  1.8116941e-11  2.2460193e-11
       360   3.6            2.7464267e-12  1.1673736e-07 -3127.1094      1.1040609e-13  4.8541311      4.2038008      199.19683      110043.77      110043.77      240706.64      1.1961645e-05 -2.8094385e-11 -8.0377515e-11
       370   3.7            4.1667204e-12  9.895119e-08  -3127.1094      1.6750176e-13  4.8541311      4.2038008      199.19683      110043.77      110043.77      240706.64      1.1960667e-05  1.4642339e-10 -4.1703972e-11
       380   3.8            5.347802e-12   1.2730537e-07 -3127.1094      2.1498113e-13  4.8541311      4.2038008      199.19683      110043.77      110043.77      240706.64      1.1959635e-05  5.2687912e-11 -4.7896118e-11
       390   3.9            3.816452e-12   6.4935099e-08 -3127.1094      1.5342101e-13  4.8541311      4.2038008      199.19683      110043.77      110043.77      240706.64      1.1958011e-05  1.1115225e-10 -7.5262977e-11
       400   4              2.7143908e-12  5.0097486e-08 -3127.1094      1.0911825e-13  4.8541311      4.2038008      199.19683      110043.77      110043.77      240706.64      1.1956348e-05  1.4537313e-10 -4.7004487e-11
       410   4.1            1.6430153e-12  3.3037944e-08 -3127.1094      6.6049057e-14  4.8541311      4.2038008      199.19683      110043.77      110043.77      240706.64      1.1954978e-05  4.7961755e-11 -1.4806442e-10
       420   4.2            9.3286088e-13  2.3129569e-08 -3127.1094      3.7500919e-14  4.8541311      4.2038008      199.19683      110043.77      110043.77      240706.64      1.19536e-05   -9.7761461e-11 -1.6425589e-10
       430   4.3            4.8838353e-13  1.1770311e-08 -3127.1094      1.9632972e-14  4.8541311      4.2038008      199.19683      110043.77      110043.77      240706.64      1.1952223e-05 -1.407345e-10  -5.1484497e-11
       440   2.2            7.8046241e-17  2.4512988e-08 -3127.1094      3.1374515e-18  4.8541311      4.2038008      199.19683      110043.77      110043.77      240706.64      1.1950489e-05 -6.4765876e-12 -2.7980609e-10
       443   2.215          2.9252718e-16  8.1030339e-09 -3127.1094      1.1759565e-17  4.8541311      4.2038008      199.19683      110043.77      110043.77      240706.64      1.1950597e-05 -2.2755578e-11 -2.1238175e-10
Loop time of 2.9778 on 2 procs for 443 steps with 312 atoms

102.9% CPU use with 1 MPI tasks x 2 OpenMP threads

Minimization stats:
  Stopping criterion = force tolerance
  Energy initial, next-to-last, final = 
     -3057.09381958562  -3127.10936752746  -3127.10936752746
  Force two-norm initial, final = 45.883178 8.1030339e-09
  Force max component initial, final = 3.6946088 2.169442e-09
  Final line search alpha, max atom move = 0 0
  Iterations, force evaluations = 443 453

MPI task timing breakdown:
Section |  min time  |  avg time  |  max time  |%varavg| %total
---------------------------------------------------------------
Pair    | 2.9608     | 2.9608     | 2.9608     |   0.0 | 99.43
Neigh   | 0          | 0          | 0          |   0.0 |  0.00
Comm    | 0.011329   | 0.011329   | 0.011329   |   0.0 |  0.38
Output  | 0.00182    | 0.00182    | 0.00182    |   0.0 |  0.06
Modify  | 0          | 0          | 0          |   0.0 |  0.00
Other   |            | 0.003876   |            |       |  0.13

Nlocal:            312 ave         312 max         312 min
Histogram: 1 0 0 0 0 0 0 0 0 0
Nghost:           6722 ave        6722 max        6722 min
Histogram: 1 0 0 0 0 0 0 0 0 0
Neighs:              0 ave           0 max           0 min
Histogram: 1 0 0 0 0 0 0 0 0 0
FullNghs:        39264 ave       39264 max       39264 min
Histogram: 1 0 0 0 0 0 0 0 0 0

Total # of neighbors = 39264
Ave neighs/atom = 125.84615
Neighbor list builds = 0
Dangerous builds = 0

#write_data      fire_${name}.data

fix             3 all box/relax z 0.0 vmax 0.001
min_style       cg
minimize        0.0 1.0e-8 1000 2000
Switching to 'neigh_modify every 1 delay 0 check yes' setting during minimization
WARNING: Energy due to 3 extra global DOFs will be included in minimizer energies
 (src/min.cpp:219)
Per MPI rank memory allocation (min/avg/max) = 5.613 | 5.613 | 5.613 Mbytes
   Step          Time           Temp          Fnorm          PotEng         KinEng           Lx             Ly             Lz            Pxx            Pyy            Pzz            Pxy            Pxz            Pyz      
       443   0.443          2.9252718e-16  8.1032239e-09 -3127.1094      1.1759565e-17  4.8541311      4.2038008      199.19683      110043.77      110043.77      240706.64      1.1950607e-05  1.0064967e-11 -1.7847813e-10
       450   0.45           2.9252718e-16  0.34065576    -3131.1047      1.1759565e-17  4.8541311      4.2038008      200.59121      97076.9        97076.9        209558.21      1.1520408e-05 -4.7019967e-11 -1.0314408e-10
       460   0.46           2.9252718e-16  0.78096467    -3135.889       1.1759565e-17  4.8541311      4.2038008      202.58318      79419.886      79419.886      168171.79      1.0958272e-05 -2.2005148e-10 -3.0981046e-12
       470   0.47           2.9252718e-16  1.174324      -3139.6653      1.1759565e-17  4.8541311      4.2038008      204.57515      62711.174      62711.174      130031.29      1.0455122e-05  2.3435638e-11 -1.5180967e-10
       480   0.48           2.9252718e-16  1.5281091     -3142.5107      1.1759565e-17  4.8541311      4.2038008      206.56712      46884.059      46884.059      94706.404      1.0008131e-05  1.2237812e-10 -3.3356477e-10
       490   0.49           2.9252718e-16  1.8481237     -3144.4916      1.1759565e-17  4.8541311      4.2038008      208.55908      31884.82       31884.82       61814.258      9.612624e-06   1.9694417e-10 -2.7729756e-10
       500   0.5            2.9252718e-16  2.1381058     -3145.6655      1.1759565e-17  4.8541311      4.2038008      210.55105      17671.281      17671.281      31030.007      9.263965e-06   1.9234847e-10 -2.8677352e-10
       510   0.51           2.9252718e-16  2.3958723     -3146.0836      1.1759565e-17  4.8541311      4.2038008      212.54302      4209.8603      4209.8603      2095.177       8.9568011e-06  9.0925522e-11 -1.314975e-10 
       520   0.52           2.9252718e-16  0.0096983576  -3146.497       1.1759565e-17  4.8541311      4.2038008      212.94383     -11.948325     -11.948325     -41.779803      9.008559e-06   3.1807015e-11 -1.1587865e-10
       530   0.53           2.9252718e-16  0.00043893961 -3146.497       1.1759565e-17  4.8541311      4.2038008      212.94121      1.3802752      1.3802752     -0.32626444     8.9923794e-06 -3.4918556e-11 -8.3284645e-11
       540   0.54           2.9252718e-16  0.00033731913 -3146.497       1.1759565e-17  4.8541311      4.2038008      212.94124      0.93262824     0.93262825    -0.17553804     8.9891048e-06  4.0895232e-11  1.8883854e-10
       550   0.55           2.9252718e-16  0.00045786328 -3146.497       1.1759565e-17  4.8541311      4.2038008      212.94121      1.150255       1.1502551     -0.18720634     8.9898113e-06 -1.3226477e-10 -2.1112831e-10
       560   0.56           2.9252718e-16  0.00045143295 -3146.497       1.1759565e-17  4.8541311      4.2038008      212.9412       1.5782657      1.5782657     -0.18370501     8.9891976e-06  2.9474046e-12  2.0869262e-10
       570   0.57           2.9252718e-16  0.00042204823 -3146.497       1.1759565e-17  4.8541311      4.2038008      212.94123      0.96484296     0.96484297    -0.19200101     8.9891688e-06  3.6474127e-10  5.4852421e-10
       580   0.58           2.9252718e-16  0.00037745109 -3146.497       1.1759565e-17  4.8541311      4.2038008      212.94124      0.86442746     0.86442747    -0.16674939     8.988128e-06  -1.5215974e-10 -4.8992406e-10
       590   0.59           2.9252718e-16  0.00032709264 -3146.497       1.1759565e-17  4.8541311      4.2038008      212.94122      1.0773741      1.0773741     -0.14198207     8.9867035e-06 -2.9093337e-10 -6.2902521e-10
       600   0.6            2.9252718e-16  0.00028719973 -3146.497       1.1759565e-17  4.8541311      4.2038008      212.94121      1.3580983      1.3580983     -0.12211824     8.9868343e-06  1.2067984e-10  7.9661794e-11
       610   0.61           2.9252718e-16  0.00027978258 -3146.497       1.1759565e-17  4.8541311      4.2038008      212.94121      1.3864727      1.3864727     -0.11602316     8.9874032e-06  2.790619e-10   6.0994899e-10
       620   0.62           2.9252718e-16  0.00030538677 -3146.497       1.1759565e-17  4.8541311      4.2038008      212.94121      1.1628248      1.1628248     -0.12208215     8.9872139e-06 -5.7433451e-11  2.6080436e-10
       630   0.63           2.9252718e-16  0.00029956425 -3146.497       1.1759565e-17  4.8541311      4.2038008      212.94122      0.96158115     0.96158116    -0.11802997     8.9867298e-06 -1.0946332e-10 -4.8535971e-10
       640   0.64           2.9252718e-16  0.00028122616 -3146.497       1.1759565e-17  4.8541311      4.2038008      212.94123      0.93346952     0.93346953    -0.11319988     8.9878253e-06 -1.3914204e-10 -7.8789845e-10
       650   0.65           2.9252718e-16  0.00025833179 -3146.497       1.1759565e-17  4.8541311      4.2038008      212.94122      1.0517717      1.0517717     -0.10130887     8.988512e-06   1.244869e-10  -1.4869041e-10
       660   0.66           2.9252718e-16  0.00021831774 -3146.497       1.1759565e-17  4.8541311      4.2038008      212.94121      1.2508313      1.2508313     -0.085946922    8.988401e-06   1.4098418e-10  6.3033519e-10
       670   0.67           2.9252718e-16  0.00016593185 -3146.497       1.1759565e-17  4.8541311      4.2038008      212.94121      1.3369249      1.3369249     -0.063785635    8.9873119e-06 -6.922307e-11   4.7034641e-10
       680   0.68           2.9252718e-16  0.00013681166 -3146.497       1.1759565e-17  4.8541311      4.2038008      212.9412       1.3031321      1.3031321     -0.049819819    8.9865532e-06 -7.1188007e-11  1.9045555e-10
       690   0.69           2.9252718e-16  0.00015980407 -3146.497       1.1759565e-17  4.8541311      4.2038008      212.94121      1.1881344      1.1881344     -0.056277036    8.9865937e-06 -2.0959321e-11 -3.7676631e-10
       700   0.7            2.9252718e-16  0.00013678875 -3146.497       1.1759565e-17  4.8541311      4.2038008      212.94121      1.0973631      1.0973631     -0.047024497    8.987084e-06   1.4475031e-10 -6.3756041e-10
       710   0.71           2.9252718e-16  0.00013454197 -3146.497       1.1759565e-17  4.8541311      4.2038008      212.94122      1.0798104      1.0798104     -0.044965944    8.987103e-06   2.3771635e-10 -2.4000877e-10
       720   0.72           2.9252718e-16  0.00013719279 -3146.497       1.1759565e-17  4.8541311      4.2038008      212.94122      1.1184675      1.1184675     -0.044487012    8.9869911e-06  2.7017874e-12  3.3852167e-10
       730   0.73           2.9252718e-16  0.00014232727 -3146.497       1.1759565e-17  4.8541311      4.2038008      212.94121      1.2093242      1.2093243     -0.045377001    8.9868165e-06 -4.7825731e-10  7.8424497e-10
       740   0.74           2.9252718e-16  0.00011381672 -3146.497       1.1759565e-17  4.8541311      4.2038008      212.94121      1.2860548      1.2860548     -0.035596057    8.9867866e-06 -5.1673733e-10  6.0534368e-10
       750   0.75           2.9252718e-16  0.00012209361 -3146.497       1.1759565e-17  4.8541311      4.2038008      212.9412       1.2998182      1.2998182     -0.037100137    8.9869089e-06 -1.8511338e-10 -3.0640726e-11
       760   0.76           2.9252718e-16  0.0001417876  -3146.497       1.1759565e-17  4.8541311      4.2038008      212.94121      1.2536814      1.2536814     -0.042213639    8.9868989e-06  6.2034678e-10 -9.7356456e-10
       770   0.77           2.9252718e-16  0.00018108309 -3146.497       1.1759565e-17  4.8541311      4.2038008      212.94121      1.1568605      1.1568605     -0.053715702    8.9866547e-06  1.2520738e-09 -1.4568672e-09
       780   0.78           2.9252718e-16  0.0001931286  -3146.497       1.1759565e-17  4.8541311      4.2038008      212.94122      1.0711429      1.0711429     -0.057613195    8.9868012e-06  9.749768e-10  -8.125523e-10 
       790   0.79           2.9252718e-16  0.00023726632 -3146.497       1.1759565e-17  4.8541311      4.2038008      212.94123      1.0241789      1.0241789     -0.071798693    8.9868117e-06 -3.5671779e-10  4.0215693e-10
       800   0.8            2.9252718e-16  0.00024890611 -3146.497       1.1759565e-17  4.8541311      4.2038008      212.94123      1.0217866      1.0217866     -0.07770524     8.9863785e-06 -1.6701548e-09  2.0241401e-09
       810   0.81           2.9252718e-16  0.0002542413  -3146.497       1.1759565e-17  4.8541311      4.2038008      212.94122      1.0736832      1.0736832     -0.08080323     8.9862327e-06 -2.3126071e-09  2.2382568e-09
       820   0.82           2.9252718e-16  0.00024093567 -3146.497       1.1759565e-17  4.8541311      4.2038008      212.94121      1.1816851      1.1816851     -0.078904589    8.9859654e-06 -1.3857304e-09  1.1025954e-09
       830   0.83           2.9252718e-16  0.00020430364 -3146.497       1.1759565e-17  4.8541311      4.2038008      212.9412       1.2783171      1.2783171     -0.069144393    8.9857724e-06 -1.0880835e-10 -2.6018009e-10
       840   0.84           2.9252718e-16  0.00019812027 -3146.497       1.1759565e-17  4.8541311      4.2038008      212.9412       1.3228499      1.3228499     -0.06905632     8.9856704e-06  1.2559628e-09 -1.3447226e-09
       850   0.85           2.9252718e-16  0.00017158957 -3146.497       1.1759565e-17  4.8541311      4.2038008      212.9412       1.3133912      1.3133912     -0.061311786    8.9851739e-06  2.0141417e-09 -1.5634548e-09
       860   0.86           2.9252718e-16  0.00016567112 -3146.497       1.1759565e-17  4.8541311      4.2038008      212.94121      1.2621101      1.2621101     -0.060428479    8.9851311e-06  1.4336667e-09 -9.6614487e-10
       870   0.87           2.9252718e-16  0.00015705193 -3146.497       1.1759565e-17  4.8541311      4.2038008      212.94121      1.1966865      1.1966865     -0.058712384    8.9854798e-06 -1.2649277e-11  2.1359472e-10
       880   0.88           2.9252718e-16  0.00013229208 -3146.497       1.1759565e-17  4.8541311      4.2038008      212.94122      1.1541174      1.1541174     -0.05031826     8.9856578e-06 -1.0015853e-09  1.0536766e-09
       890   0.89           2.9252718e-16  0.00011353701 -3146.497       1.1759565e-17  4.8541311      4.2038008      212.94122      1.1329003      1.1329003     -0.043812621    8.9861388e-06 -1.4420176e-09  1.1906388e-09
       900   0.9            2.9252718e-16  8.8061849e-05 -3146.497       1.1759565e-17  4.8541311      4.2038008      212.94121      1.1331124      1.1331124     -0.034274075    8.9866588e-06 -1.2445824e-09  7.8306804e-10
       910   0.91           2.9252718e-16  8.1642824e-05 -3146.497       1.1759565e-17  4.8541311      4.2038008      212.94121      1.1502759      1.1502759     -0.031765388    8.9865715e-06 -6.0921212e-10  9.5330113e-11
       920   0.92           2.9252718e-16  8.023066e-05  -3146.497       1.1759565e-17  4.8541311      4.2038008      212.94121      1.1888632      1.1888633     -0.031335076    8.9862946e-06  4.1681212e-10 -7.1394733e-10
       930   0.93           2.9252718e-16  6.9378124e-05 -3146.497       1.1759565e-17  4.8541311      4.2038008      212.94121      1.2322556      1.2322556     -0.027279013    8.9859789e-06  1.0334337e-09 -1.002312e-09 
       940   0.94           2.9252718e-16  6.7774321e-05 -3146.497       1.1759565e-17  4.8541311      4.2038008      212.94121      1.2601163      1.2601163     -0.026802965    8.9855334e-06  9.554503e-10  -6.0903816e-10
       950   0.95           2.9252718e-16  7.2129301e-05 -3146.497       1.1759565e-17  4.8541311      4.2038008      212.94121      1.2669991      1.2669991     -0.028634182    8.9851512e-06  6.1527069e-10 -7.3142709e-11
       960   0.96           2.9252718e-16  8.7335521e-05 -3146.497       1.1759565e-17  4.8541311      4.2038008      212.94121      1.2474526      1.2474526     -0.034924593    8.9849601e-06 -7.9784603e-11  8.205042e-10 
       970   0.97           2.9252718e-16  9.7730033e-05 -3146.497       1.1759565e-17  4.8541311      4.2038008      212.94121      1.2066999      1.2066999     -0.039632097    8.9849768e-06 -1.0017082e-09  1.4483423e-09
       980   0.98           2.9252718e-16  9.6417556e-05 -3146.497       1.1759565e-17  4.8541311      4.2038008      212.94121      1.1686911      1.1686911     -0.039590149    8.9856119e-06 -1.8057764e-09  1.4018592e-09
       990   0.99           2.9252718e-16  0.00010960083 -3146.497       1.1759565e-17  4.8541311      4.2038008      212.94122      1.135348       1.135348      -0.04562928     8.9863707e-06 -1.6250842e-09  7.7379599e-10
      1000   1              2.9252718e-16  0.00011678286 -3146.497       1.1759565e-17  4.8541311      4.2038008      212.94122      1.1136224      1.1136224     -0.049341665    8.9864775e-06 -5.8137551e-10 -5.6351711e-10
      1010   1.01           2.9252718e-16  0.00012819828 -3146.497       1.1759565e-17  4.8541311      4.2038008      212.94121      1.1160568      1.1160568     -0.054866115    8.9856935e-06  8.9253137e-10 -1.6269161e-09
      1020   1.02           2.9252718e-16  0.00013749653 -3146.497       1.1759565e-17  4.8541311      4.2038008      212.94121      1.1549423      1.1549423     -0.059952631    8.9846704e-06  2.165237e-09  -2.1028298e-09
      1030   1.03           2.9252718e-16  0.00012480204 -3146.497       1.1759565e-17  4.8541311      4.2038008      212.94121      1.2148148      1.2148148     -0.055639093    8.9838945e-06  2.5864702e-09 -1.543478e-09 
      1040   1.04           2.9252718e-16  0.00012729877 -3146.497       1.1759565e-17  4.8541311      4.2038008      212.94121      1.2615923      1.2615923     -0.058038606    8.9836003e-06  1.8551865e-09 -3.6662437e-10
      1050   1.05           2.9252718e-16  0.00011541585 -3146.497       1.1759565e-17  4.8541311      4.2038008      212.94121      1.2829301      1.2829301     -0.053677755    8.9838553e-06  3.4050709e-10  1.0104378e-09
      1060   1.06           2.9252718e-16  9.9095672e-05 -3146.497       1.1759565e-17  4.8541311      4.2038008      212.94121      1.2701655      1.2701655     -0.046792734    8.984062e-06  -9.0468944e-10  1.5172276e-09
      1070   1.07           2.9252718e-16  9.4134181e-05 -3146.497       1.1759565e-17  4.8541311      4.2038008      212.94121      1.2347874      1.2347874     -0.045185592    8.984431e-06  -1.5076793e-09  1.4935665e-09
      1080   1.08           2.9252718e-16  8.6055271e-05 -3146.497       1.1759565e-17  4.8541311      4.2038008      212.94121      1.1985176      1.1985176     -0.041925078    8.9848974e-06 -1.4246607e-09  4.6874988e-10
      1090   1.09           2.9252718e-16  9.7520183e-05 -3146.497       1.1759565e-17  4.8541311      4.2038008      212.94121      1.1600721      1.1600721     -0.048222466    8.9849025e-06 -6.6140574e-10 -5.8538727e-10
      1100   1.1            2.9252718e-16  0.00010344207 -3146.497       1.1759565e-17  4.8541311      4.2038008      212.94122      1.1238487      1.1238487     -0.052009362    8.985066e-06   5.0568453e-10 -1.8391292e-09
      1110   1.11           2.9252718e-16  0.00010381496 -3146.497       1.1759565e-17  4.8541311      4.2038008      212.94122      1.1119191      1.1119191     -0.052829973    8.9846764e-06  1.3988709e-09 -2.0177234e-09
      1120   1.12           2.9252718e-16  0.00012893054 -3146.497       1.1759565e-17  4.8541311      4.2038008      212.94122      1.1307429      1.1307429     -0.06653271     8.9834746e-06  1.9533104e-09 -1.1940058e-09
      1130   1.13           2.9252718e-16  0.00014175777 -3146.497       1.1759565e-17  4.8541311      4.2038008      212.94121      1.1927335      1.1927335     -0.074821337    8.981849e-06   1.8467536e-09  8.0240015e-10
      1140   1.14           2.9252718e-16  0.00013959988 -3146.497       1.1759565e-17  4.8541311      4.2038008      212.94121      1.259039       1.259039      -0.075584173    8.9810458e-06  8.269107e-10   2.4550344e-09
      1150   1.15           2.9252718e-16  0.00011362261 -3146.497       1.1759565e-17  4.8541311      4.2038008      212.94121      1.2897843      1.2897843     -0.062793822    8.9810278e-06 -5.153455e-10   2.6676467e-09
      1160   1.16           2.9252718e-16  9.4947719e-05 -3146.497       1.1759565e-17  4.8541311      4.2038008      212.9412       1.276259       1.276259      -0.053094868    8.9819477e-06 -1.34242e-09    1.8886006e-09
      1170   1.17           2.9252718e-16  9.7282503e-05 -3146.497       1.1759565e-17  4.8541311      4.2038008      212.94121      1.2313947      1.2313947     -0.055227152    8.9828675e-06 -1.2492492e-09  8.98242e-11  
      1180   1.18           2.9252718e-16  8.7784531e-05 -3146.497       1.1759565e-17  4.8541311      4.2038008      212.94121      1.1843955      1.1843955     -0.050626405    8.9836341e-06 -6.1813621e-10 -1.4521186e-09
      1190   1.19           2.9252718e-16  7.4591557e-05 -3146.497       1.1759565e-17  4.8541311      4.2038008      212.94121      1.1554084      1.1554084     -0.043640999    8.9836867e-06  1.3463907e-10 -2.1388331e-09
      1200   1.2            2.9252718e-16  6.0975283e-05 -3146.497       1.1759565e-17  4.8541311      4.2038008      212.94121      1.1489045      1.1489045     -0.035870389    8.9831475e-06  6.3254574e-10 -1.7101495e-09
      1210   1.21           2.9252718e-16  6.2195868e-05 -3146.497       1.1759565e-17  4.8541311      4.2038008      212.94121      1.160805       1.160805      -0.036415041    8.9824719e-06  7.1339468e-10 -4.0937196e-10
      1220   1.22           2.9252718e-16  5.9739482e-05 -3146.497       1.1759565e-17  4.8541311      4.2038008      212.94121      1.1944532      1.1944532     -0.034971273    8.9815647e-06  4.2827424e-10  1.3041958e-09
      1230   1.23           2.9252718e-16  4.710918e-05  -3146.497       1.1759565e-17  4.8541311      4.2038008      212.94121      1.2260022      1.2260022     -0.027501593    8.9814382e-06  1.604698e-11   1.808683e-09 
      1240   1.24           2.9252718e-16  3.9341268e-05 -3146.497       1.1759565e-17  4.8541311      4.2038008      212.94121      1.2387753      1.2387754     -0.022780506    8.9817691e-06 -4.3511059e-10  1.4102614e-09
      1250   1.25           2.9252718e-16  3.6713833e-05 -3146.497       1.1759565e-17  4.8541311      4.2038008      212.94121      1.2351239      1.2351239     -0.020872489    8.9822231e-06 -3.4918556e-10  4.543813e-10 
      1260   1.26           2.9252718e-16  4.5601925e-05 -3146.497       1.1759565e-17  4.8541311      4.2038008      212.94121      1.2166358      1.2166358     -0.025630561    8.9828596e-06  5.0474302e-11 -1.1288764e-09
      1270   1.27           2.9252718e-16  4.8086849e-05 -3146.497       1.1759565e-17  4.8541311      4.2038008      212.94121      1.1943364      1.1943364     -0.026869324    8.9836469e-06  5.813346e-10  -2.6180525e-09
      1280   1.28           2.9252718e-16  5.4098468e-05 -3146.497       1.1759565e-17  4.8541311      4.2038008      212.94121      1.1770406      1.1770406     -0.029875158    8.9841644e-06  6.4490847e-10 -2.4435723e-09
      1290   1.29           2.9252718e-16  6.6758553e-05 -3146.497       1.1759565e-17  4.8541311      4.2038008      212.94121      1.1623381      1.1623381     -0.036545888    8.9836955e-06  3.9859551e-10 -5.397946e-10 
      1300   1.3            2.9252718e-16  8.4959887e-05 -3146.497       1.1759565e-17  4.8541311      4.2038008      212.94121      1.1574698      1.1574698     -0.045841485    8.9826343e-06 -2.1909039e-10  2.6008899e-09
      1310   1.31           2.9252718e-16  0.00010345468 -3146.497       1.1759565e-17  4.8541311      4.2038008      212.94121      1.1766901      1.1766901     -0.055653981    8.9819142e-06 -1.3587125e-09  5.9391734e-09
      1320   1.32           2.9252718e-16  9.3468767e-05 -3146.497       1.1759565e-17  4.8541311      4.2038008      212.94121      1.2153225      1.2153225     -0.050040655    8.9824516e-06 -1.7103133e-09  6.3345249e-09
      1330   1.33           2.9252718e-16  9.9562868e-05 -3146.497       1.1759565e-17  4.8541311      4.2038008      212.94121      1.2394491      1.2394491     -0.052847238    8.9845317e-06 -7.3107912e-10  2.6311316e-09
      1340   1.34           2.9252718e-16  9.410769e-05  -3146.497       1.1759565e-17  4.8541311      4.2038008      212.94121      1.2457915      1.2457915     -0.049614975    8.9877941e-06  4.9545051e-10 -2.7296343e-09
      1350   1.35           2.9252718e-16  8.4338096e-05 -3146.497       1.1759565e-17  4.8541311      4.2038008      212.94121      1.2346651      1.2346651     -0.043866719    8.9899711e-06  1.0382642e-09 -5.4897251e-09
      1360   1.36           2.9252718e-16  7.401764e-05  -3146.497       1.1759565e-17  4.8541311      4.2038008      212.94121      1.2179634      1.2179634     -0.03819188     8.9898837e-06  7.0205538e-10 -4.8188324e-09
      1370   1.37           2.9252718e-16  6.8655968e-05 -3146.497       1.1759565e-17  4.8541311      4.2038008      212.94121      1.2011463      1.2011463     -0.034907052    8.9883806e-06 -4.1386471e-11 -1.7198412e-09
      1380   1.38           2.9252718e-16  6.3928476e-05 -3146.497       1.1759565e-17  4.8541311      4.2038008      212.94121      1.183593       1.183593      -0.032132823    8.9865685e-06 -6.2435851e-10  2.1543991e-09
      1390   1.39           2.9252718e-16  2.6012374e-05 -3146.497       1.1759565e-17  4.8541311      4.2038008      212.94121      1.237843       1.237843       0.003747631    8.9847717e-06 -3.7260106e-10  6.0960103e-10
      1400   1.4            2.9252718e-16  1.0949898e-05 -3146.497       1.1759565e-17  4.8541311      4.2038008      212.9412       1.2437743      1.2437743      0.04697412     8.9832067e-06 -1.9199066e-11  1.555984e-10 
      1410   1.41           2.9252718e-16  1.0166362e-05 -3146.497       1.1759565e-17  4.8541311      4.2038008      212.94121      1.2158614      1.2158614      0.000191872    8.9819988e-06 -3.7722684e-10  8.6541118e-10
      1420   1.42           2.9252718e-16  3.0857333e-06 -3146.497       1.1759565e-17  4.8541311      4.2038008      212.94121      1.2203966      1.2203966      2.7152357e-05  8.9820081e-06 -3.8291697e-10  1.195193e-09 
      1430   1.43           2.9252718e-16  8.4113932e-07 -3146.497       1.1759565e-17  4.8541311      4.2038008      212.94121      1.220706       1.220706       1.7160161e-05  8.9821655e-06 -5.616443e-11   2.1542661e-10
      1440   1.44           2.9252718e-16  1.7959136e-07 -3146.497       1.1759565e-17  4.8541311      4.2038008      212.94121      1.2208171      1.2208171      1.7417618e-05  8.9823818e-06  5.4281366e-11 -4.9737451e-11
      1443   1.443          2.9252718e-16  2.9497731e-07 -3146.497       1.1759565e-17  4.8541311      4.2038008      212.94121      1.2201356      1.2201356     -0.0014046764   8.9819328e-06  1.9420121e-10  6.4648452e-11
Loop time of 12.6996 on 2 procs for 1000 steps with 312 atoms

103.4% CPU use with 1 MPI tasks x 2 OpenMP threads

Minimization stats:
  Stopping criterion = max iterations
  Energy initial, next-to-last, final = 
     -3127.10936752746  -3146.49696468249  -3146.49696468249
  Force two-norm initial, final = 610.68012 3.5758943e-06
  Force max component initial, final = 610.68012 3.5637071e-06
  Final line search alpha, max atom move = 1 3.5637071e-06
  Iterations, force evaluations = 1000 1933

MPI task timing breakdown:
Section |  min time  |  avg time  |  max time  |%varavg| %total
---------------------------------------------------------------
Pair    | 12.529     | 12.529     | 12.529     |   0.0 | 98.65
Neigh   | 0.014891   | 0.014891   | 0.014891   |   0.0 |  0.12
Comm    | 0.039781   | 0.039781   | 0.039781   |   0.0 |  0.31
Output  | 0.0019684  | 0.0019684  | 0.0019684  |   0.0 |  0.02
Modify  | 0          | 0          | 0          |   0.0 |  0.00
Other   |            | 0.1142     |            |       |  0.90

Nlocal:            312 ave         312 max         312 min
Histogram: 1 0 0 0 0 0 0 0 0 0
Nghost:           6672 ave        6672 max        6672 min
Histogram: 1 0 0 0 0 0 0 0 0 0
Neighs:              0 ave           0 max           0 min
Histogram: 1 0 0 0 0 0 0 0 0 0
FullNghs:        38256 ave       38256 max       38256 min
Histogram: 1 0 0 0 0 0 0 0 0 0

Total # of neighbors = 38256
Ave neighs/atom = 122.61538
Neighbor list builds = 17
Dangerous builds = 0
unfix           3
min_style       fire
minimize        0.0 1.0e-8 2000 4000
Switching to 'neigh_modify every 1 delay 0 check yes' setting during minimization
  Parameters for fire:
    dmax  delaystep dtgrow dtshrink alpha0 alphashrink tmax tmin   integrator   halfstepback   abcfire  
     0.1     20      1.1     0.5     0.25     0.99      10  0.02 eulerimplicit      yes          no     
Per MPI rank memory allocation (min/avg/max) = 4.488 | 4.488 | 4.488 Mbytes
   Step          Time           Temp          Fnorm          PotEng         KinEng           Lx             Ly             Lz            Pxx            Pyy            Pzz            Pxy            Pxz            Pyz      
      1443   1.443          0              2.9497749e-07 -3146.497       0              4.8541311      4.2038008      212.94121      1.2201356      1.2201356     -0.0014046763   8.9817374e-06  3.141442e-10   7.6755326e-13
      1450   1.45           2.8149878e-15  2.8592057e-07 -3146.497       1.1316224e-16  4.8541311      4.2038008      212.94121      1.2201347      1.2201347     -0.0014055729   8.9818108e-06  3.2134896e-10  3.2298641e-11
      1460   1.46           1.5270734e-14  2.4892023e-07 -3146.497       6.1388207e-16  4.8541311      4.2038008      212.94121      1.2201309      1.2201309     -0.0014097035   8.981873e-06   2.6162309e-10 -1.3079107e-11
      1470   2.6041947      3.6964784e-14  1.8203777e-07 -3146.497       1.4859808e-15  4.8541311      4.2038008      212.94121      1.2201249      1.2201249     -0.001416981    8.9819817e-06  2.5016096e-10  2.2453492e-11
      1480   6.80056        7.5791188e-14  9.5914464e-08 -3146.497       3.0467986e-15  4.8541311      4.2038008      212.94121      1.2201388      1.2201388     -0.0014087074   8.9823433e-06 -1.0438724e-11  2.6639216e-11
      1490   14.9           1.2955154e-13  5.9616455e-08 -3146.497       5.2079597e-15  4.8541311      4.2038008      212.94121      1.2201822      1.2201822     -0.0013691135   8.9824242e-06 -7.9661794e-11  8.248639e-12 
      1500   15             2.5614715e-13  4.5949256e-08 -3146.497       1.0297091e-14  4.8541311      4.2038008      212.94121      1.2201761      1.2201761     -0.0013770898   8.9823652e-06 -1.6701959e-11  5.216292e-11 
      1510   15.1           4.1052565e-13  3.1684682e-08 -3146.497       1.6503092e-14  4.8541311      4.2038008      212.94121      1.2201727      1.2201728     -0.0013805453   8.9823708e-06  4.0444939e-11  1.8912512e-11
      1520   15.2           5.2807528e-13  1.6319338e-08 -3146.497       2.1228576e-14  4.8541311      4.2038008      212.94121      1.2201696      1.2201696     -0.0013849053   8.9824271e-06 -5.8456855e-11 -3.3547194e-11
      1527   15.27          2.6772364e-13  8.2302558e-09 -3146.497       1.0762465e-14  4.8541311      4.2038008      212.94121      1.2201714      1.2201714     -0.001383471    8.9820911e-06  8.9936774e-11  6.200807e-11 
Loop time of 0.553983 on 2 procs for 84 steps with 312 atoms

101.9% CPU use with 1 MPI tasks x 2 OpenMP threads

Minimization stats:
  Stopping criterion = force tolerance
  Energy initial, next-to-last, final = 
     -3146.49696468249   -3146.4969646825  -3146.49696468249
  Force two-norm initial, final = 2.9497749e-07 8.2302558e-09
  Force max component initial, final = 6.7476181e-08 1.2911991e-09
  Final line search alpha, max atom move = 0 0
  Iterations, force evaluations = 84 85

MPI task timing breakdown:
Section |  min time  |  avg time  |  max time  |%varavg| %total
---------------------------------------------------------------
Pair    | 0.55145    | 0.55145    | 0.55145    |   0.0 | 99.54
Neigh   | 0          | 0          | 0          |   0.0 |  0.00
Comm    | 0.0017255  | 0.0017255  | 0.0017255  |   0.0 |  0.31
Output  | 0.00013489 | 0.00013489 | 0.00013489 |   0.0 |  0.02
Modify  | 0          | 0          | 0          |   0.0 |  0.00
Other   |            | 0.0006743  |            |       |  0.12

Nlocal:            312 ave         312 max         312 min
Histogram: 1 0 0 0 0 0 0 0 0 0
Nghost:           6672 ave        6672 max        6672 min
Histogram: 1 0 0 0 0 0 0 0 0 0
Neighs:              0 ave           0 max           0 min
Histogram: 1 0 0 0 0 0 0 0 0 0
FullNghs:        38256 ave       38256 max       38256 min
Histogram: 1 0 0 0 0 0 0 0 0 0

Total # of neighbors = 38256
Ave neighs/atom = 122.61538
Neighbor list builds = 0
Dangerous builds = 0

fix             3 all box/relax z 0.0 vmax 0.001
min_style       cg
minimize        0.0 1.0e-8 1000 2000
Switching to 'neigh_modify every 1 delay 0 check yes' setting during minimization
WARNING: Energy due to 3 extra global DOFs will be included in minimizer energies
 (src/min.cpp:219)
Per MPI rank memory allocation (min/avg/max) = 5.613 | 5.613 | 5.613 Mbytes
   Step          Time           Temp          Fnorm          PotEng         KinEng           Lx             Ly             Lz            Pxx            Pyy            Pzz            Pxy            Pxz            Pyz      
      1527   1.527          2.6772364e-13  8.2303404e-09 -3146.497       1.0762465e-14  4.8541311      4.2038008      212.94121      1.2201714      1.2201714     -0.0013834708   8.9821098e-06  3.3649535e-11  7.7082816e-11
      1530   1.53           2.6772364e-13  5.8572531e-09 -3146.497       1.0762465e-14  4.8541311      4.2038008      212.94121      1.2208274      1.2208274      1.70476e-05    8.9821828e-06  3.2012088e-11 -6.5497823e-13
      1531   1.531          2.6772364e-13  5.9713396e-09 -3146.497       1.0762465e-14  4.8541311      4.2038008      212.94121      1.2208196      1.2208196     -2.7848904e-07  8.982212e-06   1.0508316e-10 -1.5392001e-11
Loop time of 0.0586513 on 2 procs for 4 steps with 312 atoms

105.0% CPU use with 1 MPI tasks x 2 OpenMP threads

Minimization stats:
  Stopping criterion = force tolerance
  Energy initial, next-to-last, final = 
     -3146.49696468249   -3146.4969646825  -3146.49696468249
  Force two-norm initial, final = 3.7520967e-06 6.0189189e-09
  Force max component initial, final = 3.7520877e-06 8.0328008e-10
  Final line search alpha, max atom move = 1 8.0328008e-10
  Iterations, force evaluations = 4 8

MPI task timing breakdown:
Section |  min time  |  avg time  |  max time  |%varavg| %total
---------------------------------------------------------------
Pair    | 0.057979   | 0.057979   | 0.057979   |   0.0 | 98.85
Neigh   | 0          | 0          | 0          |   0.0 |  0.00
Comm    | 0.00016932 | 0.00016932 | 0.00016932 |   0.0 |  0.29
Output  | 1.4365e-05 | 1.4365e-05 | 1.4365e-05 |   0.0 |  0.02
Modify  | 0          | 0          | 0          |   0.0 |  0.00
Other   |            | 0.0004884  |            |       |  0.83

Nlocal:            312 ave         312 max         312 min
Histogram: 1 0 0 0 0 0 0 0 0 0
Nghost:           6672 ave        6672 max        6672 min
Histogram: 1 0 0 0 0 0 0 0 0 0
Neighs:              0 ave           0 max           0 min
Histogram: 1 0 0 0 0 0 0 0 0 0
FullNghs:        38256 ave       38256 max       38256 min
Histogram: 1 0 0 0 0 0 0 0 0 0

Total # of neighbors = 38256
Ave neighs/atom = 122.61538
Neighbor list builds = 0
Dangerous builds = 0
unfix           3
min_style       fire
minimize        0.0 1.0e-8 2000 4000
Switching to 'neigh_modify every 1 delay 0 check yes' setting during minimization
  Parameters for fire:
    dmax  delaystep dtgrow dtshrink alpha0 alphashrink tmax tmin   integrator   halfstepback   abcfire  
     0.1     20      1.1     0.5     0.25     0.99      10  0.02 eulerimplicit      yes          no     
Per MPI rank memory allocation (min/avg/max) = 4.488 | 4.488 | 4.488 Mbytes
   Step          Time           Temp          Fnorm          PotEng         KinEng           Lx             Ly             Lz            Pxx            Pyy            Pzz            Pxy            Pxz            Pyz      
      1531   1.531          0              5.9713992e-09 -3146.497       0              4.8541311      4.2038008      212.94121      1.2208196      1.2208196     -2.7852318e-07  8.9822516e-06  1.8421278e-11 -3.905311e-11 
      1532   1.532          4.8408308e-20  5.9691656e-09 -3146.497       1.9460094e-21  4.8541311      4.2038008      212.94121      1.2208196      1.2208196     -2.7748438e-07  8.9822601e-06  1.5023576e-11 -1.5596682e-11
Loop time of 0.019394 on 2 procs for 1 steps with 312 atoms

110.0% CPU use with 1 MPI tasks x 2 OpenMP threads

Minimization stats:
  Stopping criterion = force tolerance
  Energy initial, next-to-last, final = 
      -3146.4969646825   -3146.4969646825  -3146.49696468249
  Force two-norm initial, final = 5.9713992e-09 5.9691656e-09
  Force max component initial, final = 8.0327493e-10 8.0329404e-10
  Final line search alpha, max atom move = 0 0
  Iterations, force evaluations = 1 2

MPI task timing breakdown:
Section |  min time  |  avg time  |  max time  |%varavg| %total
---------------------------------------------------------------
Pair    | 0.019301   | 0.019301   | 0.019301   |   0.0 | 99.52
Neigh   | 0          | 0          | 0          |   0.0 |  0.00
Comm    | 5.8485e-05 | 5.8485e-05 | 5.8485e-05 |   0.0 |  0.30
Output  | 0          | 0          | 0          |   0.0 |  0.00
Modify  | 0          | 0          | 0          |   0.0 |  0.00
Other   |            | 3.484e-05  |            |       |  0.18

Nlocal:            312 ave         312 max         312 min
Histogram: 1 0 0 0 0 0 0 0 0 0
Nghost:           6672 ave        6672 max        6672 min
Histogram: 1 0 0 0 0 0 0 0 0 0
Neighs:              0 ave           0 max           0 min
Histogram: 1 0 0 0 0 0 0 0 0 0
FullNghs:        38256 ave       38256 max       38256 min
Histogram: 1 0 0 0 0 0 0 0 0 0

Total # of neighbors = 38256
Ave neighs/atom = 122.61538
Neighbor list builds = 0
Dangerous builds = 0

fix             3 all box/relax z 0.0 vmax 0.001
min_style       cg
minimize        0.0 1.0e-8 1000 2000
Switching to 'neigh_modify every 1 delay 0 check yes' setting during minimization
WARNING: Energy due to 3 extra global DOFs will be included in minimizer energies
 (src/min.cpp:219)
Per MPI rank memory allocation (min/avg/max) = 5.613 | 5.613 | 5.613 Mbytes
   Step          Time           Temp          Fnorm          PotEng         KinEng           Lx             Ly             Lz            Pxx            Pyy            Pzz            Pxy            Pxz            Pyz      
      1532   1.532          4.8408308e-20  5.9691907e-09 -3146.497       1.9460094e-21  4.8541311      4.2038008      212.94121      1.2208196      1.2208196     -2.7742805e-07  8.9822673e-06  3.2994556e-11 -2.4561704e-12
      1540   1.54           4.8408308e-20  6.8189774e-09 -3146.497       1.9460094e-21  4.8541311      4.2038008      212.94121      1.2208169      1.220817       6.2629071e-08  8.981783e-06   2.2559925e-10  3.02723e-11  
Loop time of 0.111373 on 2 procs for 8 steps with 312 atoms

104.6% CPU use with 1 MPI tasks x 2 OpenMP threads

Minimization stats:
  Stopping criterion = force tolerance
  Energy initial, next-to-last, final = 
     -3146.49696468249  -3146.49696468249   -3146.4969646825
  Force two-norm initial, final = 6.0164238e-09 6.8210926e-09
  Force max component initial, final = 8.0328076e-10 9.9993344e-10
  Final line search alpha, max atom move = 1 9.9993344e-10
  Iterations, force evaluations = 8 16

MPI task timing breakdown:
Section |  min time  |  avg time  |  max time  |%varavg| %total
---------------------------------------------------------------
Pair    | 0.11011    | 0.11011    | 0.11011    |   0.0 | 98.87
Neigh   | 0          | 0          | 0          |   0.0 |  0.00
Comm    | 0.00031569 | 0.00031569 | 0.00031569 |   0.0 |  0.28
Output  | 0          | 0          | 0          |   0.0 |  0.00
Modify  | 0          | 0          | 0          |   0.0 |  0.00
Other   |            | 0.0009457  |            |       |  0.85

Nlocal:            312 ave         312 max         312 min
Histogram: 1 0 0 0 0 0 0 0 0 0
Nghost:           6672 ave        6672 max        6672 min
Histogram: 1 0 0 0 0 0 0 0 0 0
Neighs:              0 ave           0 max           0 min
Histogram: 1 0 0 0 0 0 0 0 0 0
FullNghs:        38256 ave       38256 max       38256 min
Histogram: 1 0 0 0 0 0 0 0 0 0

Total # of neighbors = 38256
Ave neighs/atom = 122.61538
Neighbor list builds = 0
Dangerous builds = 0
unfix           3
min_style       fire
minimize        0.0 1.0e-8 2000 4000
Switching to 'neigh_modify every 1 delay 0 check yes' setting during minimization
  Parameters for fire:
    dmax  delaystep dtgrow dtshrink alpha0 alphashrink tmax tmin   integrator   halfstepback   abcfire  
     0.1     20      1.1     0.5     0.25     0.99      10  0.02 eulerimplicit      yes          no     
Per MPI rank memory allocation (min/avg/max) = 4.488 | 4.488 | 4.488 Mbytes
   Step          Time           Temp          Fnorm          PotEng         KinEng           Lx             Ly             Lz            Pxx            Pyy            Pzz            Pxy            Pxz            Pyz      
      1540   1.54           0              6.8189354e-09 -3146.497       0              4.8541311      4.2038008      212.94121      1.2208169      1.220817       6.2549164e-08  8.9818026e-06  2.4058189e-10  2.1061661e-11
      1541   1.541          8.1413242e-20  6.8022648e-09 -3146.497       3.2728046e-21  4.8541311      4.2038008      212.94121      1.2208169      1.220817       6.1788078e-08  8.98178e-06    2.2965193e-10  2.9811769e-11
Loop time of 0.0192054 on 2 procs for 1 steps with 312 atoms

104.8% CPU use with 1 MPI tasks x 2 OpenMP threads

Minimization stats:
  Stopping criterion = force tolerance
  Energy initial, next-to-last, final = 
      -3146.4969646825   -3146.4969646825   -3146.4969646825
  Force two-norm initial, final = 6.8189354e-09 6.8022648e-09
  Force max component initial, final = 9.9993849e-10 9.9852378e-10
  Final line search alpha, max atom move = 0 0
  Iterations, force evaluations = 1 2

MPI task timing breakdown:
Section |  min time  |  avg time  |  max time  |%varavg| %total
---------------------------------------------------------------
Pair    | 0.019106   | 0.019106   | 0.019106   |   0.0 | 99.48
Neigh   | 0          | 0          | 0          |   0.0 |  0.00
Comm    | 5.8947e-05 | 5.8947e-05 | 5.8947e-05 |   0.0 |  0.31
Output  | 0          | 0          | 0          |   0.0 |  0.00
Modify  | 0          | 0          | 0          |   0.0 |  0.00
Other   |            | 4.04e-05   |            |       |  0.21

Nlocal:            312 ave         312 max         312 min
Histogram: 1 0 0 0 0 0 0 0 0 0
Nghost:           6672 ave        6672 max        6672 min
Histogram: 1 0 0 0 0 0 0 0 0 0
Neighs:              0 ave           0 max           0 min
Histogram: 1 0 0 0 0 0 0 0 0 0
FullNghs:        38256 ave       38256 max       38256 min
Histogram: 1 0 0 0 0 0 0 0 0 0

Total # of neighbors = 38256
Ave neighs/atom = 122.61538
Neighbor list builds = 0
Dangerous builds = 0

fix             3 all box/relax z 0.0 vmax 0.001
min_style       cg
minimize        0.0 1.0e-8 1000 2000
Switching to 'neigh_modify every 1 delay 0 check yes' setting during minimization
WARNING: Energy due to 3 extra global DOFs will be included in minimizer energies
 (src/min.cpp:219)
Per MPI rank memory allocation (min/avg/max) = 5.613 | 5.613 | 5.613 Mbytes
   Step          Time           Temp          Fnorm          PotEng         KinEng           Lx             Ly             Lz            Pxx            Pyy            Pzz            Pxy            Pxz            Pyz      
      1541   1.541          8.1413242e-20  6.8022276e-09 -3146.497       3.2728046e-21  4.8541311      4.2038008      212.94121      1.2208169      1.220817       6.1772359e-08  8.9817938e-06  2.1577457e-10  2.2074832e-11
      1543   1.543          8.1413242e-20  2.779166e-09  -3146.497       3.2728046e-21  4.8541311      4.2038008      212.94121      1.2208171      1.2208171      3.2450269e-08  8.9822562e-06  1.455281e-10   6.1813622e-12
Loop time of 0.0320431 on 2 procs for 2 steps with 312 atoms

106.4% CPU use with 1 MPI tasks x 2 OpenMP threads

Minimization stats:
  Stopping criterion = force tolerance
  Energy initial, next-to-last, final = 
      -3146.4969646825  -3146.49696468249  -3146.49696468249
  Force two-norm initial, final = 6.8042903e-09 2.7805591e-09
  Force max component initial, final = 9.9852242e-10 3.4998264e-10
  Final line search alpha, max atom move = 1 3.4998264e-10
  Iterations, force evaluations = 2 4

MPI task timing breakdown:
Section |  min time  |  avg time  |  max time  |%varavg| %total
---------------------------------------------------------------
Pair    | 0.03169    | 0.03169    | 0.03169    |   0.0 | 98.90
Neigh   | 0          | 0          | 0          |   0.0 |  0.00
Comm    | 9.4479e-05 | 9.4479e-05 | 9.4479e-05 |   0.0 |  0.29
Output  | 0          | 0          | 0          |   0.0 |  0.00
Modify  | 0          | 0          | 0          |   0.0 |  0.00
Other   |            | 0.0002591  |            |       |  0.81

Nlocal:            312 ave         312 max         312 min
Histogram: 1 0 0 0 0 0 0 0 0 0
Nghost:           6672 ave        6672 max        6672 min
Histogram: 1 0 0 0 0 0 0 0 0 0
Neighs:              0 ave           0 max           0 min
Histogram: 1 0 0 0 0 0 0 0 0 0
FullNghs:        38256 ave       38256 max       38256 min
Histogram: 1 0 0 0 0 0 0 0 0 0

Total # of neighbors = 38256
Ave neighs/atom = 122.61538
Neighbor list builds = 0
Dangerous builds = 0
unfix           3
min_style       fire
minimize        0.0 1.0e-8 2000 4000
Switching to 'neigh_modify every 1 delay 0 check yes' setting during minimization
  Parameters for fire:
    dmax  delaystep dtgrow dtshrink alpha0 alphashrink tmax tmin   integrator   halfstepback   abcfire  
     0.1     20      1.1     0.5     0.25     0.99      10  0.02 eulerimplicit      yes          no     
Per MPI rank memory allocation (min/avg/max) = 4.488 | 4.488 | 4.488 Mbytes
   Step          Time           Temp          Fnorm          PotEng         KinEng           Lx             Ly             Lz            Pxx            Pyy            Pzz            Pxy            Pxz            Pyz      
      1543   1.543          0              2.7791582e-09 -3146.497       0              4.8541311      4.2038008      212.94121      1.2208171      1.2208171      3.2046802e-08  8.982264e-06   1.0950426e-10 -5.8743409e-12
      1544   1.544          1.1190434e-20  2.7757132e-09 -3146.497       4.4985437e-22  4.8541311      4.2038008      212.94121      1.2208171      1.2208171      3.2063831e-08  8.9822496e-06  1.2677933e-10  3.1213832e-12
Loop time of 0.0191352 on 2 procs for 1 steps with 312 atoms

105.1% CPU use with 1 MPI tasks x 2 OpenMP threads

Minimization stats:
  Stopping criterion = force tolerance
  Energy initial, next-to-last, final = 
     -3146.49696468249  -3146.49696468249  -3146.49696468249
  Force two-norm initial, final = 2.7791582e-09 2.7757132e-09
  Force max component initial, final = 3.4995309e-10 3.4982725e-10
  Final line search alpha, max atom move = 0 0
  Iterations, force evaluations = 1 2

MPI task timing breakdown:
Section |  min time  |  avg time  |  max time  |%varavg| %total
---------------------------------------------------------------
Pair    | 0.019041   | 0.019041   | 0.019041   |   0.0 | 99.51
Neigh   | 0          | 0          | 0          |   0.0 |  0.00
Comm    | 5.7033e-05 | 5.7033e-05 | 5.7033e-05 |   0.0 |  0.30
Output  | 0          | 0          | 0          |   0.0 |  0.00
Modify  | 0          | 0          | 0          |   0.0 |  0.00
Other   |            | 3.76e-05   |            |       |  0.20

Nlocal:            312 ave         312 max         312 min
Histogram: 1 0 0 0 0 0 0 0 0 0
Nghost:           6672 ave        6672 max        6672 min
Histogram: 1 0 0 0 0 0 0 0 0 0
Neighs:              0 ave           0 max           0 min
Histogram: 1 0 0 0 0 0 0 0 0 0
FullNghs:        38256 ave       38256 max       38256 min
Histogram: 1 0 0 0 0 0 0 0 0 0

Total # of neighbors = 38256
Ave neighs/atom = 122.61538
Neighbor list builds = 0
Dangerous builds = 0

fix             3 all box/relax z 0.0 vmax 0.001
min_style       cg
minimize        0.0 1.0e-8 1000 2000
Switching to 'neigh_modify every 1 delay 0 check yes' setting during minimization
WARNING: Energy due to 3 extra global DOFs will be included in minimizer energies
 (src/min.cpp:219)
Per MPI rank memory allocation (min/avg/max) = 5.613 | 5.613 | 5.613 Mbytes
   Step          Time           Temp          Fnorm          PotEng         KinEng           Lx             Ly             Lz            Pxx            Pyy            Pzz            Pxy            Pxz            Pyz      
      1544   1.544          1.1190434e-20  2.7757198e-09 -3146.497       4.4985437e-22  4.8541311      4.2038008      212.94121      1.2208171      1.2208171      3.1818869e-08  8.9823128e-06  1.3652214e-10 -6.119958e-11 
      1546   1.546          1.1190434e-20  2.7695932e-09 -3146.497       4.4985437e-22  4.8541311      4.2038008      212.94121      1.2208168      1.2208168      3.5926896e-08  8.9819922e-06  4.7772515e-11  4.107945e-11 
Loop time of 0.0312522 on 2 procs for 2 steps with 312 atoms

102.5% CPU use with 1 MPI tasks x 2 OpenMP threads

Minimization stats:
  Stopping criterion = force tolerance
  Energy initial, next-to-last, final = 
     -3146.49696468249   -3146.4969646825   -3146.4969646825
  Force two-norm initial, final = 2.777061e-09 2.7713066e-09
  Force max component initial, final = 3.4980147e-10 2.6933283e-10
  Final line search alpha, max atom move = 1 2.6933283e-10
  Iterations, force evaluations = 2 4

MPI task timing breakdown:
Section |  min time  |  avg time  |  max time  |%varavg| %total
---------------------------------------------------------------
Pair    | 0.030898   | 0.030898   | 0.030898   |   0.0 | 98.87
Neigh   | 0          | 0          | 0          |   0.0 |  0.00
Comm    | 9.5488e-05 | 9.5488e-05 | 9.5488e-05 |   0.0 |  0.31
Output  | 0          | 0          | 0          |   0.0 |  0.00
Modify  | 0          | 0          | 0          |   0.0 |  0.00
Other   |            | 0.0002591  |            |       |  0.83

Nlocal:            312 ave         312 max         312 min
Histogram: 1 0 0 0 0 0 0 0 0 0
Nghost:           6672 ave        6672 max        6672 min
Histogram: 1 0 0 0 0 0 0 0 0 0
Neighs:              0 ave           0 max           0 min
Histogram: 1 0 0 0 0 0 0 0 0 0
FullNghs:        38256 ave       38256 max       38256 min
Histogram: 1 0 0 0 0 0 0 0 0 0

Total # of neighbors = 38256
Ave neighs/atom = 122.61538
Neighbor list builds = 0
Dangerous builds = 0
unfix           3
min_style       fire
minimize        0.0 1.0e-8 2000 4000
Switching to 'neigh_modify every 1 delay 0 check yes' setting during minimization
  Parameters for fire:
    dmax  delaystep dtgrow dtshrink alpha0 alphashrink tmax tmin   integrator   halfstepback   abcfire  
     0.1     20      1.1     0.5     0.25     0.99      10  0.02 eulerimplicit      yes          no     
Per MPI rank memory allocation (min/avg/max) = 4.488 | 4.488 | 4.488 Mbytes
   Step          Time           Temp          Fnorm          PotEng         KinEng           Lx             Ly             Lz            Pxx            Pyy            Pzz            Pxy            Pxz            Pyz      
      1546   1.546          0              2.7696684e-09 -3146.497       0              4.8541311      4.2038008      212.94121      1.2208168      1.2208168      3.5820789e-08  8.981854e-06   1.474521e-10   7.4319623e-11
      1547   1.547          1.350088e-20   2.7635204e-09 -3146.497       5.427341e-22   4.8541311      4.2038008      212.94121      1.2208168      1.2208168      3.5848299e-08  8.9818589e-06  1.7815423e-10  4.8652642e-11
Loop time of 0.0187117 on 2 procs for 1 steps with 312 atoms

104.4% CPU use with 1 MPI tasks x 2 OpenMP threads

Minimization stats:
  Stopping criterion = force tolerance
  Energy initial, next-to-last, final = 
      -3146.4969646825   -3146.4969646825   -3146.4969646825
  Force two-norm initial, final = 2.7696684e-09 2.7635204e-09
  Force max component initial, final = 2.6931313e-10 2.6834659e-10
  Final line search alpha, max atom move = 0 0
  Iterations, force evaluations = 1 2

MPI task timing breakdown:
Section |  min time  |  avg time  |  max time  |%varavg| %total
---------------------------------------------------------------
Pair    | 0.018621   | 0.018621   | 0.018621   |   0.0 | 99.52
Neigh   | 0          | 0          | 0          |   0.0 |  0.00
Comm    | 5.6056e-05 | 5.6056e-05 | 5.6056e-05 |   0.0 |  0.30
Output  | 0          | 0          | 0          |   0.0 |  0.00
Modify  | 0          | 0          | 0          |   0.0 |  0.00
Other   |            | 3.417e-05  |            |       |  0.18

Nlocal:            312 ave         312 max         312 min
Histogram: 1 0 0 0 0 0 0 0 0 0
Nghost:           6672 ave        6672 max        6672 min
Histogram: 1 0 0 0 0 0 0 0 0 0
Neighs:              0 ave           0 max           0 min
Histogram: 1 0 0 0 0 0 0 0 0 0
FullNghs:        38256 ave       38256 max       38256 min
Histogram: 1 0 0 0 0 0 0 0 0 0

Total # of neighbors = 38256
Ave neighs/atom = 122.61538
Neighbor list builds = 0
Dangerous builds = 0

fix             3 all box/relax z 0.0 vmax 0.001
min_style       cg
minimize        0.0 1.0e-8 1000 2000
Switching to 'neigh_modify every 1 delay 0 check yes' setting during minimization
WARNING: Energy due to 3 extra global DOFs will be included in minimizer energies
 (src/min.cpp:219)
Per MPI rank memory allocation (min/avg/max) = 5.613 | 5.613 | 5.613 Mbytes
   Step          Time           Temp          Fnorm          PotEng         KinEng           Lx             Ly             Lz            Pxx            Pyy            Pzz            Pxy            Pxz            Pyz      
      1547   1.547          1.350088e-20   2.7634492e-09 -3146.497       5.427341e-22   4.8541311      4.2038008      212.94121      1.2208168      1.2208168      3.5583687e-08  8.9818216e-06  1.8232972e-10  6.0687878e-11
      1549   1.549          1.350088e-20   1.8519901e-09 -3146.497       5.427341e-22   4.8541311      4.2038008      212.94121      1.2208169      1.2208169      2.438486e-08   8.9820142e-06  5.6328175e-11  1.7602555e-11
Loop time of 0.0315161 on 2 procs for 2 steps with 312 atoms

99.9% CPU use with 1 MPI tasks x 2 OpenMP threads

Minimization stats:
  Stopping criterion = force tolerance
  Energy initial, next-to-last, final = 
      -3146.4969646825  -3146.49696468249   -3146.4969646825
  Force two-norm initial, final = 2.7651338e-09 1.8531706e-09
  Force max component initial, final = 2.6833663e-10 2.7191821e-10
  Final line search alpha, max atom move = 1 2.7191821e-10
  Iterations, force evaluations = 2 4

MPI task timing breakdown:
Section |  min time  |  avg time  |  max time  |%varavg| %total
---------------------------------------------------------------
Pair    | 0.031161   | 0.031161   | 0.031161   |   0.0 | 98.87
Neigh   | 0          | 0          | 0          |   0.0 |  0.00
Comm    | 9.4948e-05 | 9.4948e-05 | 9.4948e-05 |   0.0 |  0.30
Output  | 0          | 0          | 0          |   0.0 |  0.00
Modify  | 0          | 0          | 0          |   0.0 |  0.00
Other   |            | 0.0002597  |            |       |  0.82

Nlocal:            312 ave         312 max         312 min
Histogram: 1 0 0 0 0 0 0 0 0 0
Nghost:           6672 ave        6672 max        6672 min
Histogram: 1 0 0 0 0 0 0 0 0 0
Neighs:              0 ave           0 max           0 min
Histogram: 1 0 0 0 0 0 0 0 0 0
FullNghs:        38256 ave       38256 max       38256 min
Histogram: 1 0 0 0 0 0 0 0 0 0

Total # of neighbors = 38256
Ave neighs/atom = 122.61538
Neighbor list builds = 0
Dangerous builds = 0
unfix           3
min_style       fire
minimize        0.0 1.0e-8 2000 4000
Switching to 'neigh_modify every 1 delay 0 check yes' setting during minimization
  Parameters for fire:
    dmax  delaystep dtgrow dtshrink alpha0 alphashrink tmax tmin   integrator   halfstepback   abcfire  
     0.1     20      1.1     0.5     0.25     0.99      10  0.02 eulerimplicit      yes          no     
Per MPI rank memory allocation (min/avg/max) = 4.488 | 4.488 | 4.488 Mbytes
   Step          Time           Temp          Fnorm          PotEng         KinEng           Lx             Ly             Lz            Pxx            Pyy            Pzz            Pxy            Pxz            Pyz      
      1549   1.549          0              1.8521539e-09 -3146.497       0              4.8541311      4.2038008      212.94121      1.2208169      1.2208169      2.4238145e-08  8.9822162e-06  4.2655493e-11 -1.4178244e-10
      1550   1.55           5.0372685e-21  1.8500309e-09 -3146.497       2.0249772e-22  4.8541311      4.2038008      212.94121      1.2208169      1.2208169      2.4316742e-08  8.9821664e-06  3.712911e-11  -1.2948112e-10
Loop time of 0.0197165 on 2 procs for 1 steps with 312 atoms

106.9% CPU use with 1 MPI tasks x 2 OpenMP threads

Minimization stats:
  Stopping criterion = force tolerance
  Energy initial, next-to-last, final = 
      -3146.4969646825   -3146.4969646825   -3146.4969646825
  Force two-norm initial, final = 1.8521539e-09 1.8500309e-09
  Force max component initial, final = 2.7204339e-10 2.7163338e-10
  Final line search alpha, max atom move = 0 0
  Iterations, force evaluations = 1 2

MPI task timing breakdown:
Section |  min time  |  avg time  |  max time  |%varavg| %total
---------------------------------------------------------------
Pair    | 0.019625   | 0.019625   | 0.019625   |   0.0 | 99.53
Neigh   | 0          | 0          | 0          |   0.0 |  0.00
Comm    | 5.8132e-05 | 5.8132e-05 | 5.8132e-05 |   0.0 |  0.29
Output  | 0          | 0          | 0          |   0.0 |  0.00
Modify  | 0          | 0          | 0          |   0.0 |  0.00
Other   |            | 3.387e-05  |            |       |  0.17

Nlocal:            312 ave         312 max         312 min
Histogram: 1 0 0 0 0 0 0 0 0 0
Nghost:           6672 ave        6672 max        6672 min
Histogram: 1 0 0 0 0 0 0 0 0 0
Neighs:              0 ave           0 max           0 min
Histogram: 1 0 0 0 0 0 0 0 0 0
FullNghs:        38256 ave       38256 max       38256 min
Histogram: 1 0 0 0 0 0 0 0 0 0

Total # of neighbors = 38256
Ave neighs/atom = 122.61538
Neighbor list builds = 0
Dangerous builds = 0


write_data      fire_cg_${name}.data
write_data      fire_cg_lmps.data
System init for write_data ...

write_data      bi_minimised.data
System init for write_data ...

print """- step: $(step)
  atoms: $(atoms)
  temp: $(temp)
  press: $(press)
  pe: $(pe)
  ke: $(ke)
  etotal: $(etotal)
  vol: $(vol)
  avecx: $(avecx)
  avecy: $(avecy)
  avecz: $(avecz)
  bvecx: $(bvecx)
  bvecy: $(bvecy)
  bvecz: $(bvecz)
  cvecx: $(cvecx)
  cvecy: $(cvecy)
  cvecz: $(cvecz)
  lx: $(lx)
  ly: $(ly)
  lz: $(lz)
  cella: $(cella)
  cellb: $(cellb)
  cellc: $(cellc)
  cellalpha: $(cellalpha)
  cellbeta: $(cellbeta)
  cellgamma: $(cellgamma)
  pxx: $(pxx)
  pyy: $(pyy)
  pzz: $(pzz)
  pxy: $(pxy)
  pyz: $(pyz)
  pxz: $(pxz)
  xlo: $(xlo)
  xhi: $(xhi)
  ylo: $(ylo)
  yhi: $(yhi)
  zlo: $(zlo)
  zhi: $(zhi)
  xy: $(xy)
  xz: $(xz)
  yz: $(yz)
""" file bi_minimised.data.yaml screen yes universe no
- step: 1550
  atoms: 312
  temp: 5.0372685229588622833e-21
  press: 0.81387792719128604357
  pe: -3146.4969646824984011
  ke: 2.0249771656097710351e-22
  etotal: -3146.4969646824984011
  vol: 4345.2357095849165489
  avecx: 4.8541310641848607332
  avecy: 0
  avecz: 0
  bvecx: -2.4270655321457348386
  bvecy: 4.2038008148832508581
  bvecz: 0
  cvecx: 0
  cvecy: 0
  cvecz: 212.94120707626549915
  lx: 4.8541310641848607332
  ly: 4.2038008148832508581
  lz: 212.94120707626549915
  cella: 4.8541310641848607332
  cellb: 4.8541310642114865459
  cellc: 212.94120707626549915
  cellalpha: 90
  cellbeta: 90
  cellgamma: 120.00000000054507154
  pxx: 1.2208168737270241877
  pyy: 1.2208168835300914346
  pzz: 2.4316742184890969575e-08
  pxy: 8.9821664477535612705e-06
  pyz: -1.2948111756329176705e-10
  pxz: 3.7129109588973813374e-11
  xlo: 0.00049104455757122676164
  xhi: 4.8546221087424319407
  ylo: 0.00042525705837334908024
  yhi: 4.2042260719416244541
  zlo: -4.3118267761826043483
  zhi: 208.62938030008288592
  xy: -2.4270655321457348386
  xz: 0
  yz: 0

[GRACE:debug, proc #0]: Data preparation timer: 1.17954e+06 mcs, graph execution time: 2.04669e+07 mcs, data preparation time fraction: 5.45 %
Total wall time: 0:00:36
