
thermo          10
thermo_style    custom step time temp fnorm pe ke lx ly lz pxx pyy pzz pxy pxz pyz

timestep        0.001

min_style       fire
minimize        0.0 1.0e-8 2000 4000

CITE-CITE-CITE-CITE-CITE-CITE-CITE-CITE-CITE-CITE-CITE-CITE-CITE

Your simulation uses code contributions which should be cited:

- Type Label Framework: https://doi.org/10.1021/acs.jpcb.3c08419

@Article{Gissinger24,
 author = {Jacob R. Gissinger, Ilia Nikiforov, Yaser Afshar, Brendon Waters, Moon-ki Choi, Daniel S. Karls, Alexander Stukowski, Wonpil Im, Hendrik Heinz, Axel Kohlmeyer, and Ellad B. Tadmor},
 title = {Type Label Framework for Bonded Force Fields in LAMMPS},
 journal = {J. Phys. Chem. B},
 year =    2024,
 volume =  128,
 number =  13,
 pages =   {3282–-3297}
}

CITE-CITE-CITE-CITE-CITE-CITE-CITE-CITE-CITE-CITE-CITE-CITE-CITE

Switching to 'neigh_modify every 1 delay 0 check yes' setting during minimization
Neighbor list info ...
  update: every = 1 steps, delay = 0 steps, check = yes
  max neighbors/atom: 2000, page size: 100000
  master list distance cutoff = 7.4
  ghost atom cutoff = 7.4
  binsize = 3.7, bins = 2 8 1051
  1 neighbor lists, perpetual/occasional/extra = 1 0 0
  (1) pair grace, perpetual
      attributes: full, newton on
      pair build: full/bin/atomonly
      stencil: full/bin/3d
      bin: standard
  Parameters for fire:
    dmax  delaystep dtgrow dtshrink alpha0 alphashrink tmax tmin   integrator   halfstepback   abcfire  
     0.1     20      1.1     0.5     0.25     0.99      10  0.02 eulerimplicit      yes          no     
[GRACE] Atoms padding: new num. of atoms = 38208 (incl. 0.989% fake atoms)
[GRACE] Neighbours padding: extending new num. of neighbours = 2433575 (incl. 0.990% fake neighbours)
Per MPI rank memory allocation (min/avg/max) = 67.07 | 67.07 | 67.07 Mbytes
   Step          Time           Temp          Fnorm          PotEng         KinEng           Lx             Ly             Lz            Pxx            Pyy            Pzz            Pxy            Pxz            Pyz      
         0   0              0              130.88971     -380981.74      0              4.8541311      27.913516      3888.3207      7958.2949     -2208.909       6944.6538     -0.0006983844  -0.004954227   -3213.9712    
        10   0.01           12.157243      120.50805     -381051.89      59.446268      4.8541311      27.913516      3888.3207      7284.5054     -2032.7753      6355.6301      0.00012261034 -0.0044817087  -2945.486     
        20   0.02           42.60881       92.227614     -381207.63      208.34779      4.8541311      27.913516      3888.3207      5862.7224     -1310.4142      5147.6851      0.0015661595  -0.0035663424  -2268.1606    
        30   0.070738431    71.787237      33.228678     -381433.18      351.02394      4.8541311      27.913516      3888.3207      3410.9318      582.81924      3129.1604      0.0037179728  -0.0019246325  -895.51982    
        40   0.09189946     0.035801973    9.3595814     -381509.53      0.17506384     4.8541311      27.913516      3888.3207     -210.96661     -147.99583     -204.54145      0.00087676683 -0.00075161265  18.008378    
        50   0.11487432     0.48664077     4.7033422     -381511.9       2.3795673      4.8541311      27.913516      3888.3207     -69.350841     -62.828918     -68.527147      0.00098983724 -0.00044200184  0.15258954   
        60   0.075817054    2.9565667e-06  0.35197362    -381512.9       1.4456967e-05  4.8541311      27.913516      3888.3207      13.035492     -2.3511738      11.722063      0.00065082842 -9.7569552e-05 -6.8073009    
        70   0.08845323     0.00022569589  0.29837446    -381512.91      0.0011036037   4.8541311      27.913516      3888.3207      12.402832     -1.3819327      11.249181      0.00064403428 -9.4885771e-05 -6.301179     
        80   0.10108941     0.00060550303  0.19168422    -381512.91      0.0029607778   4.8541311      27.913516      3888.3207      10.758711      0.28980143     9.9357942      0.00063829543 -8.152106e-05  -5.2534566    
        90   0.29497487     0.0012116282   0.055955067   -381512.91      0.005924598    4.8541311      27.913516      3888.3207      1.746158       0.01154776     1.7946554      0.0008020101   4.6727864e-05 -2.4939482    
       100   0.85009871     0.00040986812  0.015242149   -381512.91      0.0020041658   4.8541311      27.913516      3888.3207      0.90587669    -0.37397324     1.0003622      0.00039326138  0.00012124003 -2.3505919    
       110   0.46755429     1.3461499e-06  0.0092389121  -381512.91      6.5823798e-06  4.8541311      27.913516      3888.3207      0.57137523    -0.40303225     0.69680224    -3.4310057e-05  4.8900046e-06 -2.2529254    
       120   0.51005923     3.8223999e-06  0.006823342   -381512.91      1.8690702e-05  4.8541311      27.913516      3888.3207      0.18441568    -0.2398409      0.36463958    -2.0730494e-05  2.4414791e-06 -2.0792269    
       130   1.3            9.177057e-06   0.0052818588  -381512.91      4.4873808e-05  4.8541311      27.913516      3888.3207      0.11146566    -0.26712461     0.296104      -5.1512528e-06 -9.4919256e-07 -2.0649748    
       140   1.4            1.8089029e-05  0.0034344187  -381512.91      8.8451408e-05  4.8541311      27.913516      3888.3207      0.11290932    -0.25976457     0.29802242     1.8399551e-06 -1.1976133e-06 -2.0633151    
       150   1.5            2.4764006e-05  0.0021739813  -381512.91      0.00012109059  4.8541311      27.913516      3888.3207      0.11500177    -0.25425011     0.3003604     -2.6542385e-07 -5.375257e-07  -2.0624052    
       160   1.6            2.8250945e-05  0.0019291276  -381512.91      0.00013814096  4.8541311      27.913516      3888.3207      0.13892956    -0.2276525      0.32448903     3.1811023e-08 -2.7672443e-08 -2.0616725    
       170   1.7            1.5065676e-05  0.0019110426  -381512.91      7.3667873e-05  4.8541311      27.913516      3888.3207      0.14452035    -0.21999699     0.33029215     2.1638597e-08 -2.0017185e-09 -2.0609441    
       180   1.8            9.0225966e-06  0.00085873418 -381512.91      4.4118531e-05  4.8541311      27.913516      3888.3207      0.11128129    -0.25858327     0.29651819     1.5932262e-08 -2.2921447e-09 -2.0626053    
       190   1.9            7.4553677e-06  0.00071675837 -381512.91      3.6455123e-05  4.8541311      27.913516      3888.3207      0.10960126    -0.25795304     0.29506023     6.3520329e-09 -1.6503187e-11 -2.0618803    
       200   2              6.5889023e-06  0.00063169926 -381512.91      3.2218296e-05  4.8541311      27.913516      3888.3207      0.11703943    -0.25113724     0.30242846     2.752934e-09  -9.3125104e-11 -2.0620839    
       210   2.1            6.5279997e-06  0.00052107993 -381512.91      3.1920496e-05  4.8541311      27.913516      3888.3207      0.11181319    -0.2561187      0.29721826     6.1641301e-11 -3.0648944e-10 -2.0620186    
       220   2.2            6.338185e-06   0.00051480584 -381512.91      3.0992343e-05  4.8541311      27.913516      3888.3207      0.11003283    -0.25822087     0.29539899    -8.392939e-10  -2.1293462e-10 -2.0621293    
       230   2.3            5.6990253e-06  0.00041714295 -381512.91      2.7866992e-05  4.8541311      27.913516      3888.3207      0.11177706    -0.25638879     0.29714757    -5.1611076e-10 -2.3685171e-10 -2.0621046    
       240   2.4            5.586496e-06   0.00036286096 -381512.91      2.7316748e-05  4.8541311      27.913516      3888.3207      0.11194068    -0.25612119     0.29731648    -3.3501014e-10 -3.3998165e-11 -2.0620786    
       250   2.5            5.3393261e-06  0.00038201312 -381512.91      2.6108141e-05  4.8541311      27.913516      3888.3207      0.11252257    -0.25558621     0.2978897     -2.9372926e-10 -2.3623844e-10 -2.0620979    
       260   2.6            5.1663503e-06  0.00029417297 -381512.91      2.5262327e-05  4.8541311      27.913516      3888.3207      0.11313253    -0.25485186     0.29850843    -7.0156186e-11 -1.9617875e-10 -2.062063     
       270   2.7            5.0770551e-06  0.0002982797  -381512.91      2.4825693e-05  4.8541311      27.913516      3888.3207      0.1128095     -0.25523618     0.29817587     8.7518222e-11  6.617119e-11  -2.0620868    
       280   2.8            5.013321e-06   0.00023714129 -381512.91      2.4514047e-05  4.8541311      27.913516      3888.3207      0.1126606     -0.2553578      0.29802658     1.1856469e-11 -3.275229e-11  -2.0620824    
       290   2.9            5.0365632e-06  0.00023828029 -381512.91      2.4627696e-05  4.8541311      27.913516      3888.3207      0.11286616    -0.25514284     0.29823001     2.2838496e-11 -1.9014604e-10 -2.0620839    
       300   3              5.0075936e-06  0.00019529562 -381512.91      2.4486041e-05  4.8541311      27.913516      3888.3207      0.11270448    -0.25529944     0.29806621     7.4864143e-11 -1.1134683e-10 -2.062086     
       310   3.1            5.0999037e-06  0.00018290152 -381512.91      2.4937417e-05  4.8541311      27.913516      3888.3207      0.11263496    -0.25537041     0.29799378     1.0012145e-10  6.5405905e-11 -2.0620909    
       320   3.2            5.1329513e-06  0.00017234407 -381512.91      2.5099013e-05  4.8541311      27.913516      3888.3207      0.11281774    -0.25516281     0.29817665    -4.919969e-12  -7.9612142e-11 -2.0620867    
       330   3.3            5.2111875e-06  0.00015026053 -381512.91      2.5481571e-05  4.8541311      27.913516      3888.3207      0.11271962    -0.25526193     0.29807609     3.8624835e-11 -2.5312662e-10 -2.0620908    
       340   3.4            5.3010585e-06  0.00014279527 -381512.91      2.5921021e-05  4.8541311      27.913516      3888.3207      0.11267599    -0.2553002      0.29803078     1.0798215e-10 -7.9698249e-12 -2.0620927    
       350   3.5            5.3620445e-06  0.00012799427 -381512.91      2.6219229e-05  4.8541311      27.913516      3888.3207      0.11271223    -0.25525437     0.298066      -1.1242024e-10  1.4168263e-10 -2.0620928    
       360   3.6            5.4362363e-06  0.00012165193 -381512.91      2.658201e-05   4.8541311      27.913516      3888.3207      0.11270619    -0.25525088     0.29805902    -1.1609174e-10  6.1652198e-11 -2.0620929    
       370   3.7            5.4935341e-06  0.00011111519 -381512.91      2.6862184e-05  4.8541311      27.913516      3888.3207      0.11265373    -0.25530468     0.29800472     7.6659702e-11  2.8234062e-10 -2.0620961    
       380   3.8            5.5380086e-06  0.00010298347 -381512.91      2.7079655e-05  4.8541311      27.913516      3888.3207      0.11264794    -0.25530172     0.29799824    -1.2430476e-10  1.4791128e-10 -2.0620958    
       390   3.9            5.5696365e-06  9.6697202e-05 -381512.91      2.7234308e-05  4.8541311      27.913516      3888.3207      0.11264494    -0.25529982     0.29799431    -1.6391967e-10 -6.959295e-11  -2.0620964    
       400   4              5.5856453e-06  8.8520409e-05 -381512.91      2.7312588e-05  4.8541311      27.913516      3888.3207      0.11264519    -0.25529689     0.29799356    -1.5438293e-10 -4.7821313e-10 -2.0620974    
       410   4.1            5.5910638e-06  8.4333277e-05 -381512.91      2.7339083e-05  4.8541311      27.913516      3888.3207      0.11266415    -0.25527476     0.29801168    -2.464888e-10  -8.5522381e-10 -2.0620981    
       420   4.2            5.5827768e-06  7.9360613e-05 -381512.91      2.7298561e-05  4.8541311      27.913516      3888.3207      0.11266389    -0.25527005     0.29801088     1.2217362e-10  2.8642538e-10 -2.0620979    
       430   4.3            5.5609517e-06  7.4459811e-05 -381512.91      2.7191842e-05  4.8541311      27.913516      3888.3207      0.11264299    -0.25529182     0.29798899     2.7885454e-11  2.9013499e-10 -2.0620994    
       440   4.4            5.5271941e-06  6.976061e-05  -381512.91      2.7026774e-05  4.8541311      27.913516      3888.3207      0.11264119    -0.25529121     0.29798661     2.5048058e-11 -4.195802e-10  -2.0620996    
       450   4.5            5.4825558e-06  6.6702837e-05 -381512.91      2.6808503e-05  4.8541311      27.913516      3888.3207      0.11265358    -0.25527329     0.29799885    -2.1089866e-10 -7.2970515e-12 -2.0620986    
       460   4.6            5.4287411e-06  6.3877035e-05 -381512.91      2.6545361e-05  4.8541311      27.913516      3888.3207      0.11265171    -0.25527501     0.29799637     2.5318992e-11 -3.7200933e-10 -2.0620991    
       470   4.7            5.3650182e-06  6.0742783e-05 -381512.91      2.6233769e-05  4.8541311      27.913516      3888.3207      0.11264892    -0.25528094     0.29799273     9.523046e-11   1.8636689e-10 -2.0621005    
       480   4.8            5.2946427e-06  5.8156611e-05 -381512.91      2.5889649e-05  4.8541311      27.913516      3888.3207      0.1126378     -0.25529027     0.29798133    -2.0946819e-11  5.0911732e-10 -2.0621003    
       490   4.9            5.2172262e-06  5.6250179e-05 -381512.91      2.5511099e-05  4.8541311      27.913516      3888.3207      0.11262251    -0.25530895     0.29796531    -9.328576e-11  -1.5746885e-10 -2.0621015    
       500   5              5.1356274e-06  5.4835568e-05 -381512.91      2.5112098e-05  4.8541311      27.913516      3888.3207      0.11263219    -0.25529645     0.29797494     4.5264204e-11  1.205986e-10  -2.0621006    
       510   5.1            5.0492887e-06  5.3131492e-05 -381512.91      2.4689921e-05  4.8541311      27.913516      3888.3207      0.11262108    -0.25530984     0.29796333     1.0778765e-10  4.3595527e-10 -2.0621013    
       520   5.2            4.9600256e-06  5.1364363e-05 -381512.91      2.4253444e-05  4.8541311      27.913516      3888.3207      0.11263228    -0.25529925     0.29797424    -1.3839734e-10 -4.1155732e-11 -2.0621013    
       530   5.3            4.8698697e-06  5.1045322e-05 -381512.91      2.3812602e-05  4.8541311      27.913516      3888.3207      0.11262076    -0.2553139      0.29796222    -1.5437286e-11 -1.9551719e-10 -2.0621021    
       540   5.4            4.778664e-06   4.9961589e-05 -381512.91      2.3366625e-05  4.8541311      27.913516      3888.3207      0.11261296    -0.25532351     0.29795408     1.1027057e-10  3.6371836e-10 -2.0621024    
       550   5.5            4.6875716e-06  4.9180478e-05 -381512.91      2.2921204e-05  4.8541311      27.913516      3888.3207      0.11261046    -0.25532727     0.29795133    -8.7381597e-11 -2.4126462e-10 -2.0621025    
       560   5.6            4.5976667e-06  4.8948429e-05 -381512.91      2.2481588e-05  4.8541311      27.913516      3888.3207      0.11261009    -0.25532939     0.2979507     -1.2694562e-10 -4.5058284e-10 -2.0621027    
       570   5.7            4.5094706e-06  4.863757e-05  -381512.91      2.2050328e-05  4.8541311      27.913516      3888.3207      0.11261525    -0.25532577     0.29795564    -2.1442705e-11  8.8336454e-11 -2.0621028    
       580   5.8            4.4235525e-06  4.8136804e-05 -381512.91      2.1630207e-05  4.8541311      27.913516      3888.3207      0.11262413    -0.25531869     0.29796429     1.5076222e-13  5.6612421e-10 -2.062103     
       590   5.9            4.3405083e-06  4.8480012e-05 -381512.91      2.1224139e-05  4.8541311      27.913516      3888.3207      0.11261238    -0.25533217     0.29795234    -9.5690082e-11  4.3325498e-10 -2.0621032    
       600   6              4.2605929e-06  4.856885e-05  -381512.91      2.0833371e-05  4.8541311      27.913516      3888.3207      0.11261047    -0.25533416     0.2979504      7.6718017e-11  8.9536204e-10 -2.0621028    
       610   6.1            4.1840036e-06  4.8633771e-05 -381512.91      2.0458866e-05  4.8541311      27.913516      3888.3207      0.11261568    -0.25533404     0.29795511     3.0504128e-10  5.0525327e-10 -2.062104     
       620   6.2            4.1108653e-06  4.9029269e-05 -381512.91      2.0101235e-05  4.8541311      27.913516      3888.3207      0.11261129    -0.25533567     0.29795101     1.8978907e-10  1.0758078e-10 -2.0621027    
       630   6.3            4.0412955e-06  4.9692532e-05 -381512.91      1.9761054e-05  4.8541311      27.913516      3888.3207      0.11260668    -0.25534632     0.29794582    -2.3627916e-10 -9.3078646e-11 -2.0621042    
       640   6.4            3.9752903e-06  5.0561332e-05 -381512.91      1.9438303e-05  4.8541311      27.913516      3888.3207      0.11261487    -0.25533756     0.2979541     -1.8478084e-10 -2.809686e-10  -2.0621036    
       650   6.5            3.9128325e-06  5.1478639e-05 -381512.91      1.9132898e-05  4.8541311      27.913516      3888.3207      0.11261194    -0.25533868     0.29795139     5.6246618e-11 -2.5879063e-10 -2.0621027    
       660   6.6            3.8539044e-06  5.1852422e-05 -381512.91      1.8844752e-05  4.8541311      27.913516      3888.3207      0.11260984    -0.25534691     0.29794873     8.1585912e-12  1.0510423e-10 -2.0621042    
       670   6.7            3.7982881e-06  5.3079426e-05 -381512.91      1.8572801e-05  4.8541311      27.913516      3888.3207      0.11260464    -0.25535303     0.29794349     1.4466033e-10  5.1355944e-10 -2.0621041    
       680   6.8            3.7457727e-06  5.3844131e-05 -381512.91      1.8316012e-05  4.8541311      27.913516      3888.3207      0.11260189    -0.25535664     0.29794073     1.2784003e-10 -8.5050255e-11 -2.062104     
       690   6.9            3.6963488e-06  5.5262316e-05 -381512.91      1.807434e-05   4.8541311      27.913516      3888.3207      0.11260038    -0.25535852     0.29793926    -3.5619117e-10 -5.6010808e-10 -2.0621038    
       700   7              3.6497824e-06  5.5998932e-05 -381512.91      1.784664e-05   4.8541311      27.913516      3888.3207      0.11260303    -0.25535979     0.2979416      2.7191304e-10  5.067924e-10  -2.0621046    
       710   7.1            3.6057676e-06  5.7637256e-05 -381512.91      1.7631418e-05  4.8541311      27.913516      3888.3207      0.11260244    -0.25536118     0.29794103    -8.9852328e-11 -1.4622686e-10 -2.0621045    
       720   7.2            3.5642677e-06  5.876107e-05  -381512.91      1.7428492e-05  4.8541311      27.913516      3888.3207      0.11260461    -0.25536135     0.29794306     5.0037743e-11  1.4093132e-10 -2.0621049    
       730   7.3            3.5250139e-06  5.9756465e-05 -381512.91      1.723655e-05   4.8541311      27.913516      3888.3207      0.11260737    -0.255358       0.29794599    -1.2865291e-10 -1.1590167e-10 -2.0621043    
       740   3.7            2.6268767e-11  5.9775165e-05 -381512.91      1.2844855e-10  4.8541311      27.913516      3888.3207      0.11260581    -0.2554618      0.29794434     8.6054813e-11  1.5155372e-10 -2.0621047    
       750   3.75           1.4986115e-10  5.6673034e-05 -381512.91      7.3278835e-10  4.8541311      27.913516      3888.3207      0.11260657    -0.25546101     0.2979451      1.2019409e-11  7.1319396e-12 -2.0621047    
       760   6.7319318      4.6848622e-10  5.6465491e-05 -381512.91      2.2907955e-09  4.8541311      27.913516      3888.3207      0.11260706    -0.25546083     0.29794555     2.6524704e-11  2.5486481e-11 -2.0621048    
       770   7.7            1.4431353e-09  5.6155686e-05 -381512.91      7.0566171e-09  4.8541311      27.913516      3888.3207      0.1126071     -0.25546071     0.29794559     1.4623485e-11 -4.3722539e-12 -2.0621048    
       780   7.8            3.0287399e-09  5.5876417e-05 -381512.91      1.4809878e-08  4.8541311      27.913516      3888.3207      0.11260704    -0.25546068     0.29794552    -2.3386343e-11 -2.558107e-11  -2.0621048    
       790   7.9            5.2693171e-09  5.5551656e-05 -381512.91      2.5765812e-08  4.8541311      27.913516      3888.3207      0.11260696    -0.25546063     0.29794543    -4.3067874e-12  8.659364e-11  -2.0621048    
       800   8              8.1937187e-09  5.5180645e-05 -381512.91      4.0065499e-08  4.8541311      27.913516      3888.3207      0.11260685    -0.25546059     0.29794529     3.6185709e-11  3.5172947e-11 -2.0621048    
       810   8.1            1.182461e-08   5.4745225e-05 -381512.91      5.7819765e-08  4.8541311      27.913516      3888.3207      0.11260671    -0.25546053     0.29794512     1.5121784e-11 -2.6498707e-11 -2.0621048    
       820   8.2            1.6168637e-08  5.4245853e-05 -381512.91      7.9061109e-08  4.8541311      27.913516      3888.3207      0.11260655    -0.25546046     0.29794493     1.5252079e-11  3.5589547e-11 -2.0621049    
       830   8.3            2.1227925e-08  5.36827e-05   -381512.91      1.0379993e-07  4.8541311      27.913516      3888.3207      0.11260636    -0.25546038     0.29794471    -9.9378286e-12  9.5634506e-12 -2.0621049    
       840   8.4            2.6994334e-08  5.3058381e-05 -381512.91      1.3199641e-07  4.8541311      27.913516      3888.3207      0.11260615    -0.25546029     0.29794446    -3.1026667e-11  1.0525958e-10 -2.0621049    
       850   8.5            3.3452954e-08  5.2375679e-05 -381512.91      1.6357765e-07  4.8541311      27.913516      3888.3207      0.11260592    -0.25546018     0.29794419     3.6093641e-12 -1.1791839e-10 -2.062105     
       860   8.6            4.0582315e-08  5.1638301e-05 -381512.91      1.9843867e-07  4.8541311      27.913516      3888.3207      0.11260567    -0.25546006     0.29794389    -5.4264579e-12  4.0897718e-11 -2.062105     
       870   8.7            4.8354725e-08  5.0850181e-05 -381512.91      2.3644406e-07  4.8541311      27.913516      3888.3207      0.11260539    -0.25545993     0.29794357    -6.3977851e-11 -1.3105121e-10 -2.062105     
       880   8.8            5.6737564e-08  5.0015343e-05 -381512.91      2.7743432e-07  4.8541311      27.913516      3888.3207      0.1126051     -0.25545979     0.29794323     7.3623684e-11  3.8825818e-10 -2.0621051    
       890   8.9            6.5693753e-08  4.9137973e-05 -381512.91      3.2122813e-07  4.8541311      27.913516      3888.3207      0.11260479    -0.25545964     0.29794286    -3.1721828e-13 -1.0628806e-10 -2.0621051    
       900   9              7.5182464e-08  4.822225e-05  -381512.91      3.6762586e-07  4.8541311      27.913516      3888.3207      0.11260447    -0.25545948     0.29794248    -9.0328314e-11 -3.5048438e-11 -2.0621052    
       910   9.1            8.5159902e-08  4.7272266e-05 -381512.91      4.1641336e-07  4.8541311      27.913516      3888.3207      0.11260413    -0.25545931     0.29794208     1.411206e-10  -9.3438065e-11 -2.0621052    
       920   9.2            9.5579881e-08  4.6292075e-05 -381512.91      4.6736478e-07  4.8541311      27.913516      3888.3207      0.11260378    -0.25545913     0.29794166    -1.7172416e-10  1.6124394e-12 -2.0621053    
       930   9.3            1.0639442e-07  4.5285592e-05 -381512.91      5.202455e-07   4.8541311      27.913516      3888.3207      0.11260341    -0.25545895     0.29794123     9.204728e-11   1.8389812e-10 -2.0621053    
       940   9.4            1.175543e-07   4.4256605e-05 -381512.91      5.7481491e-07  4.8541311      27.913516      3888.3207      0.11260303    -0.25545876     0.29794078     8.3115907e-11 -5.9630477e-11 -2.0621054    
       950   9.5            1.2900956e-07  4.3208786e-05 -381512.91      6.3082861e-07  4.8541311      27.913516      3888.3207      0.11260265    -0.25545856     0.29794033    -1.6492271e-10  1.4734162e-10 -2.0621054    
       960   9.6            1.4070992e-07  4.2145651e-05 -381512.91      6.8804082e-07  4.8541311      27.913516      3888.3207      0.11260225    -0.25545836     0.29793986     1.3979251e-10  1.5601134e-10 -2.0621055    
       970   9.7            1.5260518e-07  4.1070603e-05 -381512.91      7.4620605e-07  4.8541311      27.913516      3888.3207      0.11260185    -0.25545815     0.29793939    -1.0239511e-10 -3.4845858e-10 -2.0621056    
       980   9.8            1.6464556e-07  3.9986916e-05 -381512.91      8.0508092e-07  4.8541311      27.913516      3888.3207      0.11260145    -0.25545795     0.29793891     2.1978338e-11  3.9964848e-11 -2.0621056    
       990   9.9            1.7678202e-07  3.8897769e-05 -381512.91      8.6442554e-07  4.8541311      27.913516      3888.3207      0.11260104    -0.25545774     0.29793843     1.0186424e-10 -8.6703916e-11 -2.0621057    
      1000   10             1.8896646e-07  3.7806243e-05 -381512.91      9.2400478e-07  4.8541311      27.913516      3888.3207      0.11260063    -0.25545753     0.29793795     4.7477734e-11  2.7800258e-10 -2.0621057    
      1010   10.1           2.0115195e-07  3.671536e-05  -381512.91      9.8358919e-07  4.8541311      27.913516      3888.3207      0.11260021    -0.25545732     0.29793746    -2.7174111e-10 -7.7726859e-11 -2.0621058    
      1020   10.2           2.1329295e-07  3.5628085e-05 -381512.91      1.042956e-06   4.8541311      27.913516      3888.3207      0.1125998     -0.25545711     0.29793697     5.2622202e-12  2.7122178e-10 -2.0621059    
      1030   10.3           2.2534537e-07  3.4547362e-05 -381512.91      1.1018897e-06  4.8541311      27.913516      3888.3207      0.11259939    -0.2554569      0.29793649     1.1969124e-10  1.6219471e-11 -2.0621059    
      1040   10.4           2.3726674e-07  3.347613e-05  -381512.91      1.1601827e-06  4.8541311      27.913516      3888.3207      0.11259898    -0.2554567      0.297936      -9.6040114e-12 -1.576533e-12  -2.062106     
      1050   10.5           2.4901628e-07  3.241734e-05  -381512.91      1.2176353e-06  4.8541311      27.913516      3888.3207      0.11259858    -0.2554565      0.29793553     1.196698e-10   4.7928623e-10 -2.0621061    
      1060   10.6           2.6055494e-07  3.1373985e-05 -381512.91      1.2740569e-06  4.8541311      27.913516      3888.3207      0.11259818    -0.25545631     0.29793505    -5.6080094e-11  9.5578412e-11 -2.0621061    
      1070   10.7           2.7184549e-07  3.0349118e-05 -381512.91      1.3292652e-06  4.8541311      27.913516      3888.3207      0.11259778    -0.25545612     0.29793459    -1.6784726e-10 -3.3148906e-10 -2.0621062    
      1080   10.8           2.8285256e-07  2.9345863e-05 -381512.91      1.3830874e-06  4.8541311      27.913516      3888.3207      0.11259739    -0.25545593     0.29793413    -5.1661033e-11  2.3011942e-10 -2.0621062    
      1090   10.9           2.9354266e-07  2.8367434e-05 -381512.91      1.4353596e-06  4.8541311      27.913516      3888.3207      0.11259701    -0.25545576     0.29793367     6.158514e-11   1.5298685e-10 -2.0621063    
      1100   11             3.0388428e-07  2.7417148e-05 -381512.91      1.4859279e-06  4.8541311      27.913516      3888.3207      0.11259663    -0.25545559     0.29793323     1.2447633e-10 -9.0333181e-11 -2.0621064    
      1110   11.1           3.1384799e-07  2.649842e-05  -381512.91      1.5346482e-06  4.8541311      27.913516      3888.3207      0.11259627    -0.25545542     0.2979328     -8.6779242e-11 -1.9665379e-10 -2.0621064    
      1120   11.2           3.234065e-07   2.561477e-05  -381512.91      1.5813873e-06  4.8541311      27.913516      3888.3207      0.11259591    -0.25545527     0.29793237    -1.9998865e-10 -4.2474411e-10 -2.0621065    
      1130   11.3           3.3253491e-07  2.4769802e-05 -381512.91      1.6260232e-06  4.8541311      27.913516      3888.3207      0.11259556    -0.25545513     0.29793196    -1.3722515e-10 -3.6416276e-10 -2.0621065    
      1140   11.4           3.4121091e-07  2.3967183e-05 -381512.91      1.668447e-06   4.8541311      27.913516      3888.3207      0.11259522    -0.25545499     0.29793156     1.2606563e-10 -1.2981468e-11 -2.0621066    
      1150   11.5           3.4941508e-07  2.3210609e-05 -381512.91      1.7085636e-06  4.8541311      27.913516      3888.3207      0.11259489    -0.25545487     0.29793117     2.1147233e-10  1.1671676e-09 -2.0621067    
      1160   11.6           3.5713128e-07  2.2503751e-05 -381512.91      1.7462941e-06  4.8541311      27.913516      3888.3207      0.11259457    -0.25545475     0.29793079     2.4796477e-10  4.1110955e-10 -2.0621067    
      1170   11.7           3.6434708e-07  2.1850191e-05 -381512.91      1.7815778e-06  4.8541311      27.913516      3888.3207      0.11259426    -0.25545465     0.29793042     1.8681231e-10  1.093379e-09  -2.0621068    
      1180   11.8           3.7105426e-07  2.1253342e-05 -381512.91      1.8143745e-06  4.8541311      27.913516      3888.3207      0.11259395    -0.25545456     0.29793006     1.3495278e-10  1.0882169e-11 -2.0621068    
      1190   11.9           3.7724931e-07  2.0716361e-05 -381512.91      1.8446669e-06  4.8541311      27.913516      3888.3207      0.11259366    -0.25545448     0.29792972     1.7494755e-10  9.6603246e-10 -2.0621069    
      1200   12             3.8293389e-07  2.0242046e-05 -381512.91      1.8724632e-06  4.8541311      27.913516      3888.3207      0.11259338    -0.25545441     0.29792939     2.7622926e-10  7.5762301e-11 -2.0621069    
      1210   12.1           3.8811521e-07  1.9832737e-05 -381512.91      1.8977988e-06  4.8541311      27.913516      3888.3207      0.11259311    -0.25545435     0.29792907     2.6150863e-10  6.7610312e-10 -2.062107     
      1220   12.2           3.9280628e-07  1.949022e-05  -381512.91      1.9207371e-06  4.8541311      27.913516      3888.3207      0.11259285    -0.25545431     0.29792876     1.5477958e-10  9.0875252e-10 -2.062107     
      1230   12.3           3.9702585e-07  1.9215649e-05 -381512.91      1.9413699e-06  4.8541311      27.913516      3888.3207      0.1125926     -0.25545427     0.29792846     2.0459235e-11 -6.9190336e-10 -2.0621071    
      1240   12.4           4.007982e-07   1.900948e-05  -381512.91      1.9598159e-06  4.8541311      27.913516      3888.3207      0.11259236    -0.25545424     0.29792818    -6.9929472e-11 -8.7979343e-10 -2.0621071    
      1250   12.5           4.0415254e-07  1.887144e-05  -381512.91      1.9762178e-06  4.8541311      27.913516      3888.3207      0.11259212    -0.25545422     0.2979279     -7.9864297e-11  7.5572209e-11 -2.0621072    
      1260   12.6           4.0712219e-07  1.8800524e-05 -381512.91      1.9907387e-06  4.8541311      27.913516      3888.3207      0.1125919     -0.25545421     0.29792764    -4.5845228e-11  6.1537833e-10 -2.0621072    
      1270   12.7           4.0974355e-07  1.8795016e-05 -381512.91      2.0035567e-06  4.8541311      27.913516      3888.3207      0.11259169    -0.25545421     0.29792738     8.2353475e-11  8.3476816e-10 -2.0621072    
      1280   12.8           4.1205494e-07  1.8852531e-05 -381512.91      2.0148589e-06  4.8541311      27.913516      3888.3207      0.11259148    -0.25545421     0.29792714    -5.4221119e-12  4.2913561e-11 -2.0621073    
      1290   12.9           4.1409536e-07  1.8970093e-05 -381512.91      2.024836e-06   4.8541311      27.913516      3888.3207      0.11259128    -0.25545422     0.29792691    -1.5260336e-10 -9.045354e-10  -2.0621073    
      1300   13             4.1590333e-07  1.9144199e-05 -381512.91      2.0336766e-06  4.8541311      27.913516      3888.3207      0.11259109    -0.25545423     0.29792668    -6.4178108e-11 -5.0144708e-10 -2.0621073    
      1310   13.1           4.1751593e-07  1.9370922e-05 -381512.91      2.0415619e-06  4.8541311      27.913516      3888.3207      0.11259091    -0.25545425     0.29792647     2.2054883e-10  2.7433048e-10 -2.0621074    
      1320   13.2           4.1896794e-07  1.9645988e-05 -381512.91      2.0486619e-06  4.8541311      27.913516      3888.3207      0.11259073    -0.25545426     0.29792626    -2.0458854e-10 -9.1881038e-10 -2.0621074    
      1330   13.3           4.2029126e-07  1.9964868e-05 -381512.91      2.0551327e-06  4.8541311      27.913516      3888.3207      0.11259056    -0.25545428     0.29792606    -1.1543053e-10 -8.5228281e-10 -2.0621074    
      1340   13.4           4.2151455e-07  2.032289e-05  -381512.91      2.0611143e-06  4.8541311      27.913516      3888.3207      0.1125904     -0.2554543      0.29792587     5.4634817e-11 -8.1914396e-11 -2.0621075    
      1350   13.5           4.2266303e-07  2.0715294e-05 -381512.91      2.0667301e-06  4.8541311      27.913516      3888.3207      0.11259024    -0.25545432     0.29792568    -2.1980324e-10 -1.1849552e-09 -2.0621075    
      1360   13.6           4.2375855e-07  2.1137362e-05 -381512.91      2.0720869e-06  4.8541311      27.913516      3888.3207      0.1125901     -0.25545433     0.2979255      1.0004942e-10  4.0012222e-11 -2.0621075    
      1370   13.7           4.2481965e-07  2.1584463e-05 -381512.91      2.0772755e-06  4.8541311      27.913516      3888.3207      0.11258995    -0.25545435     0.29792533    -1.8912344e-10 -4.6126358e-10 -2.0621076    
      1380   13.8           4.2586184e-07  2.205215e-05  -381512.91      2.0823715e-06  4.8541311      27.913516      3888.3207      0.11258981    -0.25545437     0.29792517     1.8220403e-10  3.80213e-10   -2.0621076    
      1390   13.9           4.2689788e-07  2.25362e-05   -381512.91      2.0874376e-06  4.8541311      27.913516      3888.3207      0.11258968    -0.25545438     0.29792501     6.6906951e-11  8.1926614e-10 -2.0621076    
      1400   14             4.2793814e-07  2.3032676e-05 -381512.91      2.0925242e-06  4.8541311      27.913516      3888.3207      0.11258955    -0.25545439     0.29792486     2.3510028e-10  6.5270829e-10 -2.0621076    
      1410   14.1           4.2899088e-07  2.3537939e-05 -381512.91      2.0976719e-06  4.8541311      27.913516      3888.3207      0.11258942    -0.2554544      0.29792471     7.3576508e-11  1.0869244e-09 -2.0621077    
      1420   14.2           4.3006263e-07  2.404867e-05  -381512.91      2.1029125e-06  4.8541311      27.913516      3888.3207      0.1125893     -0.2554544      0.29792457     1.3676326e-10  3.0721049e-11 -2.0621077    
      1430   14.3           4.3115849e-07  2.4561877e-05 -381512.91      2.108271e-06   4.8541311      27.913516      3888.3207      0.11258918    -0.25545441     0.29792443    -1.2740983e-10 -1.9698702e-10 -2.0621077    
      1440   14.4           4.322824e-07   2.5074855e-05 -381512.91      2.1137667e-06  4.8541311      27.913516      3888.3207      0.11258907    -0.25545441     0.2979243     -2.1074356e-10 -1.2973204e-09 -2.0621077    
      1450   14.5           4.3343738e-07  2.5585228e-05 -381512.91      2.1194143e-06  4.8541311      27.913516      3888.3207      0.11258896    -0.25545441     0.29792417    -1.815309e-10  -4.7130404e-10 -2.0621077    
      1460   14.6           4.3462579e-07  2.6090849e-05 -381512.91      2.1252254e-06  4.8541311      27.913516      3888.3207      0.11258885    -0.25545441     0.29792404     7.2575995e-11 -1.1947408e-10 -2.0621078    
      1470   14.7           4.3584946e-07  2.6589857e-05 -381512.91      2.1312089e-06  4.8541311      27.913516      3888.3207      0.11258875    -0.2554544      0.29792392     1.2334412e-10  9.8426452e-10 -2.0621078    
      1480   14.8           4.3710989e-07  2.7080582e-05 -381512.91      2.1373721e-06  4.8541311      27.913516      3888.3207      0.11258865    -0.2554544      0.2979238      2.9909769e-10  9.4497604e-10 -2.0621078    
      1490   14.9           4.3840834e-07  2.7561568e-05 -381512.91      2.1437212e-06  4.8541311      27.913516      3888.3207      0.11258854    -0.25545439     0.29792368     2.9896301e-11  3.5197641e-10 -2.0621078    
      1500   15             4.3974594e-07  2.8031529e-05 -381512.91      2.1502618e-06  4.8541311      27.913516      3888.3207      0.11258845    -0.25545438     0.29792357    -1.5940713e-10 -8.3612759e-10 -2.0621078    
      1510   15.1           4.4112376e-07  2.8489322e-05 -381512.91      2.156999e-06   4.8541311      27.913516      3888.3207      0.11258835    -0.25545437     0.29792345    -2.7137303e-10 -1.0503435e-09 -2.0621078    
      1520   15.2           4.4254287e-07  2.8933954e-05 -381512.91      2.1639382e-06  4.8541311      27.913516      3888.3207      0.11258825    -0.25545436     0.29792334    -6.0130468e-11 -3.1475411e-10 -2.0621079    
      1530   15.3           4.4400439e-07  2.9364537e-05 -381512.91      2.1710847e-06  4.8541311      27.913516      3888.3207      0.11258816    -0.25545434     0.29792323     1.8226457e-10  7.0458885e-10 -2.0621079    
      1540   15.4           4.4550949e-07  2.9780293e-05 -381512.91      2.1784443e-06  4.8541311      27.913516      3888.3207      0.11258806    -0.25545432     0.29792312     2.9071154e-10  1.4016136e-09 -2.0621079    
      1550   15.5           4.4705944e-07  3.0180535e-05 -381512.91      2.1860232e-06  4.8541311      27.913516      3888.3207      0.11258798    -0.25545431     0.29792301     9.7626547e-11  2.6570974e-11 -2.0621079    
      1560   15.6           4.4865555e-07  3.0564655e-05 -381512.91      2.1938279e-06  4.8541311      27.913516      3888.3207      0.11258787    -0.25545428     0.2979229     -2.0134354e-10 -4.7788154e-10 -2.0621079    
      1570   15.7           4.5029926e-07  3.0932125e-05 -381512.91      2.2018652e-06  4.8541311      27.913516      3888.3207      0.11258779    -0.25545427     0.29792279    -2.2136669e-10 -1.2274925e-09 -2.0621079    
      1580   15.8           4.5199204e-07  3.1282472e-05 -381512.91      2.2101425e-06  4.8541311      27.913516      3888.3207      0.11258769    -0.25545424     0.29792269    -1.1364922e-10 -1.3761788e-12 -2.0621079    
      1590   15.9           4.5373542e-07  3.1615294e-05 -381512.91      2.2186673e-06  4.8541311      27.913516      3888.3207      0.1125876     -0.25545422     0.29792257     3.502857e-10   8.4708483e-10 -2.062108     
      1600   16             4.5553099e-07  3.1930234e-05 -381512.91      2.2274473e-06  4.8541311      27.913516      3888.3207      0.1125875     -0.25545419     0.29792247     1.5881667e-11  5.7397927e-10 -2.062108     
      1610   16.1           4.5738035e-07  3.2226996e-05 -381512.91      2.2364902e-06  4.8541311      27.913516      3888.3207      0.11258741    -0.25545416     0.29792236     1.8309493e-10  2.7084618e-10 -2.062108     
      1620   16.2           4.5928508e-07  3.2505335e-05 -381512.91      2.2458039e-06  4.8541311      27.913516      3888.3207      0.11258732    -0.25545413     0.29792224    -2.4970119e-10 -7.1091321e-10 -2.062108     
      1630   16.3           4.6124676e-07  3.2765037e-05 -381512.91      2.2553961e-06  4.8541311      27.913516      3888.3207      0.11258721    -0.2554541      0.29792213    -9.0254563e-11 -4.6441038e-10 -2.062108     
      1640   16.4           4.6326691e-07  3.3005947e-05 -381512.91      2.2652742e-06  4.8541311      27.913516      3888.3207      0.11258712    -0.25545407     0.29792201     1.9970661e-10  4.975947e-10  -2.062108     
      1650   16.5           4.6534699e-07  3.3227937e-05 -381512.91      2.2754453e-06  4.8541311      27.913516      3888.3207      0.11258701    -0.25545403     0.2979219      1.783999e-11   4.2112569e-10 -2.062108     
      1660   16.6           4.6748835e-07  3.3430933e-05 -381512.91      2.2859162e-06  4.8541311      27.913516      3888.3207      0.11258691    -0.255454       0.29792177     1.400441e-10   3.7283612e-10 -2.0621081    
      1670   16.7           4.6969227e-07  3.3614881e-05 -381512.91      2.2966928e-06  4.8541311      27.913516      3888.3207      0.11258681    -0.25545397     0.29792165    -1.8291581e-10 -4.7315345e-10 -2.0621081    
      1680   16.8           4.7195987e-07  3.3779795e-05 -381512.91      2.3077809e-06  4.8541311      27.913516      3888.3207      0.1125867     -0.25545393     0.29792153    -2.0998831e-10 -1.0923817e-09 -2.0621081    
      1690   16.9           4.7429212e-07  3.3925687e-05 -381512.91      2.3191851e-06  4.8541311      27.913516      3888.3207      0.1125866     -0.25545389     0.2979214     -1.3391523e-10 -1.8914537e-10 -2.0621081    
      1700   17             4.7668985e-07  3.4052635e-05 -381512.91      2.3309094e-06  4.8541311      27.913516      3888.3207      0.11258648    -0.25545385     0.29792128     2.5843139e-10  7.413108e-10  -2.0621081    
      1710   17.1           4.7915369e-07  3.4160728e-05 -381512.91      2.3429571e-06  4.8541311      27.913516      3888.3207      0.11258637    -0.25545381     0.29792114     8.3950015e-11  6.3157308e-10 -2.0621081    
      1720   17.2           4.8168409e-07  3.4250106e-05 -381512.91      2.3553302e-06  4.8541311      27.913516      3888.3207      0.11258626    -0.25545377     0.29792101     8.7806066e-11  1.2540615e-10 -2.0621081    
      1730   17.3           4.842813e-07   3.432093e-05  -381512.91      2.36803e-06    4.8541311      27.913516      3888.3207      0.11258614    -0.25545373     0.29792087    -2.8763351e-10 -1.0176974e-09 -2.0621082    
      1740   17.4           4.8694535e-07  3.4373407e-05 -381512.91      2.3810566e-06  4.8541311      27.913516      3888.3207      0.11258603    -0.25545369     0.29792073    -1.0877618e-10 -4.788316e-10  -2.0621082    
      1750   17.5           4.8967605e-07  3.4407747e-05 -381512.91      2.3944091e-06  4.8541311      27.913516      3888.3207      0.11258589    -0.25545364     0.29792059     2.5757421e-10  7.559157e-10  -2.0621082    
      1760   17.6           4.9247297e-07  3.4424224e-05 -381512.91      2.4080855e-06  4.8541311      27.913516      3888.3207      0.11258578    -0.25545359     0.29792044     5.0440882e-11  6.7500428e-10 -2.0621082    
      1770   17.7           4.9533548e-07  3.4423098e-05 -381512.91      2.4220825e-06  4.8541311      27.913516      3888.3207      0.11258564    -0.25545354     0.2979203      1.869927e-10   2.6489387e-10 -2.0621082    
      1780   17.8           4.9826268e-07  3.4404718e-05 -381512.91      2.4363959e-06  4.8541311      27.913516      3888.3207      0.11258552    -0.2554535      0.29792015    -2.8743835e-10 -7.5938918e-10 -2.0621082    
      1790   17.9           5.0125345e-07  3.4369391e-05 -381512.91      2.4510201e-06  4.8541311      27.913516      3888.3207      0.11258539    -0.25545345     0.29791999    -2.5401162e-10 -1.1763972e-09 -2.0621083    
      1800   18             5.0430643e-07  3.4317522e-05 -381512.91      2.4659485e-06  4.8541311      27.913516      3888.3207      0.11258525    -0.25545339     0.29791983     1.1276181e-10  5.5100062e-10 -2.0621083    
      1810   18.1           5.0742004e-07  3.424946e-05  -381512.91      2.4811734e-06  4.8541311      27.913516      3888.3207      0.11258512    -0.25545335     0.29791967     1.8189724e-10  6.0201754e-10 -2.0621083    
      1820   18.2           5.1059243e-07  3.4165663e-05 -381512.91      2.4966857e-06  4.8541311      27.913516      3888.3207      0.11258497    -0.25545329     0.29791951     1.5741687e-10  7.2117696e-10 -2.0621083    
      1830   18.3           5.1382155e-07  3.4066539e-05 -381512.91      2.5124754e-06  4.8541311      27.913516      3888.3207      0.11258484    -0.25545324     0.29791934    -6.9293147e-11 -3.5495422e-10 -2.0621083    
      1840   18.4           5.1710512e-07  3.3952594e-05 -381512.91      2.5285313e-06  4.8541311      27.913516      3888.3207      0.11258469    -0.25545319     0.29791918    -4.0122283e-10 -1.5287504e-09 -2.0621084    
      1850   18.5           5.2044063e-07  3.3824277e-05 -381512.91      2.5448413e-06  4.8541311      27.913516      3888.3207      0.11258454    -0.25545313     0.29791901    -4.6256754e-11  4.6540032e-11 -2.0621084    
      1860   18.6           5.2382538e-07  3.368213e-05  -381512.91      2.5613919e-06  4.8541311      27.913516      3888.3207      0.1125844     -0.25545308     0.29791883     1.8446961e-10  3.4181933e-10 -2.0621084    
      1870   18.7           5.2725646e-07  3.3526656e-05 -381512.91      2.5781691e-06  4.8541311      27.913516      3888.3207      0.11258424    -0.25545302     0.29791866     1.5617307e-10  1.0687656e-09 -2.0621084    
      1880   18.8           5.3073074e-07  3.3358435e-05 -381512.91      2.5951576e-06  4.8541311      27.913516      3888.3207      0.1125841     -0.25545296     0.29791848     1.3248169e-10  5.4156808e-11 -2.0621084    
      1890   18.9           5.3424496e-07  3.3178015e-05 -381512.91      2.6123414e-06  4.8541311      27.913516      3888.3207      0.11258394    -0.25545291     0.2979183     -3.0314662e-10 -6.9558106e-10 -2.0621085    
      1900   19             5.3779563e-07  3.2986019e-05 -381512.91      2.6297034e-06  4.8541311      27.913516      3888.3207      0.11258379    -0.25545285     0.29791812    -5.6403029e-11 -7.9062947e-10 -2.0621085    
      1910   19.1           5.4137914e-07  3.2783013e-05 -381512.91      2.647226e-06   4.8541311      27.913516      3888.3207      0.11258364    -0.25545279     0.29791794     3.9683215e-11  4.5373337e-10 -2.0621085    
      1920   19.2           5.4499172e-07  3.256967e-05  -381512.91      2.6648907e-06  4.8541311      27.913516      3888.3207      0.11258347    -0.25545273     0.29791776     2.2072869e-10  9.0007209e-10 -2.0621085    
      1930   19.3           5.4862944e-07  3.2346595e-05 -381512.91      2.6826784e-06  4.8541311      27.913516      3888.3207      0.11258332    -0.25545267     0.29791757     1.8331087e-10  5.9385921e-10 -2.0621086    
      1940   19.4           5.5228828e-07  3.2114496e-05 -381512.91      2.7005693e-06  4.8541311      27.913516      3888.3207      0.11258316    -0.25545261     0.29791739    -1.7669923e-10 -7.2039706e-10 -2.0621086    
      1950   19.5           5.5596409e-07  3.1874003e-05 -381512.91      2.7185432e-06  4.8541311      27.913516      3888.3207      0.11258301    -0.25545255     0.2979172     -3.6294513e-10 -1.2829268e-09 -2.0621086    
      1960   19.6           5.5965261e-07  3.1625848e-05 -381512.91      2.7365793e-06  4.8541311      27.913516      3888.3207      0.11258284    -0.2554525      0.29791701    -5.3499789e-12  4.6650773e-11 -2.0621086    
      1970   19.7           5.6334952e-07  3.1370715e-05 -381512.91      2.7546564e-06  4.8541311      27.913516      3888.3207      0.11258268    -0.25545243     0.29791683     4.0336095e-10  1.2270164e-09 -2.0621087    
      1980   19.8           5.6705042e-07  3.110935e-05  -381512.91      2.7727529e-06  4.8541311      27.913516      3888.3207      0.11258253    -0.25545237     0.29791664     1.1263383e-10  7.25901e-10   -2.0621087    
      1990   19.9           5.7075083e-07  3.0842473e-05 -381512.91      2.7908471e-06  4.8541311      27.913516      3888.3207      0.11258235    -0.25545231     0.29791645     2.6499037e-11 -5.1138463e-11 -2.0621087    
      2000   20             5.7444625e-07  3.0570846e-05 -381512.91      2.808917e-06   4.8541311      27.913516      3888.3207      0.11258221    -0.25545226     0.29791626    -4.3969535e-10 -1.5894152e-09 -2.0621087    
Loop time of 1445.07 on 1 procs for 2000 steps with 37830 atoms

97.0% CPU use with 1 MPI tasks x 1 OpenMP threads

Minimization stats:
  Stopping criterion = max iterations
  Energy initial, next-to-last, final = 
     -380981.738860482   -381512.91149662  -381512.911496624
  Force two-norm initial, final = 130.88971 3.0570846e-05
  Force max component initial, final = 1.3762108 5.3520044e-07
  Final line search alpha, max atom move = 0 0
  Iterations, force evaluations = 2000 2005

MPI task timing breakdown:
Section |  min time  |  avg time  |  max time  |%varavg| %total
---------------------------------------------------------------
Pair    | 1438.6     | 1438.6     | 1438.6     |   0.0 | 99.55
Neigh   | 0          | 0          | 0          |   0.0 |  0.00
Comm    | 4.5032     | 4.5032     | 4.5032     |   0.0 |  0.31
Output  | 0.070921   | 0.070921   | 0.070921   |   0.0 |  0.00
Modify  | 0          | 0          | 0          |   0.0 |  0.00
Other   |            | 1.892      |            |       |  0.13

Nlocal:          37830 ave       37830 max       37830 min
Histogram: 1 0 0 0 0 0 0 0 0 0
Nghost:         214728 ave      214728 max      214728 min
Histogram: 1 0 0 0 0 0 0 0 0 0
Neighs:              0 ave           0 max           0 min
Histogram: 1 0 0 0 0 0 0 0 0 0
FullNghs:  4.57453e+06 ave 4.57453e+06 max 4.57453e+06 min
Histogram: 1 0 0 0 0 0 0 0 0 0

Total # of neighbors = 4574532
Ave neighs/atom = 120.92339
Neighbor list builds = 0
Dangerous builds = 0

#write_data      fire_${name}.data

fix             3 all box/relax aniso 0.0 vmax 0.001
min_style       cg
minimize        0.0 1.0e-8 1000 2000
Switching to 'neigh_modify every 1 delay 0 check yes' setting during minimization
WARNING: Energy due to 3 extra global DOFs will be included in minimizer energies
 (src/min.cpp:219)
Per MPI rank memory allocation (min/avg/max) = 85.5 | 85.5 | 85.5 Mbytes
   Step          Time           Temp          Fnorm          PotEng         KinEng           Lx             Ly             Lz            Pxx            Pyy            Pzz            Pxy            Pxz            Pyz      
      2000   2              5.7444625e-07  3.0570846e-05 -381512.91      2.808917e-06   4.8541311      27.913516      3888.3207      0.11258221    -0.25545226     0.29791626    -4.3998773e-10 -1.5843725e-09 -2.0621087    
      2010   2.01           5.7444625e-07  9.2729972e-05 -381512.91      2.808917e-06   4.8541312      27.913511      3888.3214     -0.0013648      0.00024101309  0.0014367781  -6.1003982e-10 -2.0116422e-09 -2.0303264    
      2020   2.02           5.7444625e-07  8.5347056e-05 -381512.91      2.808917e-06   4.8541312      27.913511      3888.3214      0.017350544    0.0063692146   0.022383927   -5.6035247e-10 -1.65695e-09   -2.0310532    
      2030   2.03           5.7444625e-07  3.8469415e-05 -381512.91      2.808917e-06   4.8541312      27.91351       3888.3214      3.3167957e-05 -3.4865039e-05  4.3875395e-07  3.3197622e-10 -9.1081322e-10 -2.0263826    
      2040   2.04           5.7444625e-07  0.00021484915 -381512.91      2.808917e-06   4.8541313      27.91351       3888.3215     -0.049372067   -0.041909622   -0.051663636    2.729612e-09  -8.5543096e-09 -2.0275214    
      2050   2.05           5.7444625e-07  6.7847709e-05 -381512.91      2.808917e-06   4.8541312      27.91351       3888.3214      7.2061109e-05  2.0474659e-05  3.6873858e-05  4.3575657e-10 -1.9468753e-09 -2.0255621    
      2056   2.056          5.7444625e-07  4.7023684e-05 -381512.91      2.808917e-06   4.8541312      27.91351       3888.3214      0.00014759709  6.5548862e-05  0.00012384489  6.7182964e-11  3.685726e-10  -2.0259464    
Loop time of 139.595 on 1 procs for 56 steps with 37830 atoms

97.0% CPU use with 1 MPI tasks x 1 OpenMP threads

Minimization stats:
  Stopping criterion = linesearch alpha is zero
  Energy initial, next-to-last, final = 
     -381512.911496624  -381512.911496652  -381512.911496652
  Force two-norm initial, final = 0.13425701 8.0490112e-05
  Force max component initial, final = 0.097965218 4.8535057e-05
  Final line search alpha, max atom move = 0.5 2.4267528e-05
  Iterations, force evaluations = 56 180

MPI task timing breakdown:
Section |  min time  |  avg time  |  max time  |%varavg| %total
---------------------------------------------------------------
Pair    | 130.08     | 130.08     | 130.08     |   0.0 | 93.19
Neigh   | 8.1499     | 8.1499     | 8.1499     |   0.0 |  5.84
Comm    | 0.66183    | 0.66183    | 0.66183    |   0.0 |  0.47
Output  | 0.0011952  | 0.0011952  | 0.0011952  |   0.0 |  0.00
Modify  | 0          | 0          | 0          |   0.0 |  0.00
Other   |            | 0.6995     |            |       |  0.50

Nlocal:          37830 ave       37830 max       37830 min
Histogram: 1 0 0 0 0 0 0 0 0 0
Nghost:         214728 ave      214728 max      214728 min
Histogram: 1 0 0 0 0 0 0 0 0 0
Neighs:              0 ave           0 max           0 min
Histogram: 1 0 0 0 0 0 0 0 0 0
FullNghs:  4.64436e+06 ave 4.64436e+06 max 4.64436e+06 min
Histogram: 1 0 0 0 0 0 0 0 0 0

Total # of neighbors = 4644360
Ave neighs/atom = 122.76923
Neighbor list builds = 82
Dangerous builds = 63
unfix           3
min_style       fire
minimize        0.0 1.0e-8 2000 4000
Switching to 'neigh_modify every 1 delay 0 check yes' setting during minimization
  Parameters for fire:
    dmax  delaystep dtgrow dtshrink alpha0 alphashrink tmax tmin   integrator   halfstepback   abcfire  
     0.1     20      1.1     0.5     0.25     0.99      10  0.02 eulerimplicit      yes          no     
Per MPI rank memory allocation (min/avg/max) = 67.5 | 67.5 | 67.5 Mbytes
   Step          Time           Temp          Fnorm          PotEng         KinEng           Lx             Ly             Lz            Pxx            Pyy            Pzz            Pxy            Pxz            Pyz      
      2056   2.056          0              4.7023686e-05 -381512.91      0              4.8541312      27.91351       3888.3214      0.00014759674  4.8507449e-05  0.00012380255  9.5405602e-11  4.3997183e-10 -2.0259465    
      2060   2.06           2.5897426e-13  4.6645183e-05 -381512.91      1.2663277e-12  4.8541312      27.91351       3888.3214      0.00015644332  6.6706582e-05  0.00012226328  8.9202449e-11  4.2928807e-10 -2.0259426    
      2070   2.07           3.1496201e-12  4.3029611e-05 -381512.91      1.5400956e-11  4.8541312      27.91351       3888.3214      0.00025808431  0.000257049    0.0001249927   8.0931357e-11  3.6745438e-10 -2.0259142    
      2080   2.76848        8.7128782e-12  3.7111616e-05 -381512.91      4.2604075e-11  4.8541312      27.91351       3888.3214      0.00046108079  0.00066220954  0.00011106312  8.8994822e-11  2.9917614e-10 -2.0258656    
      2090   7.2152468      2.4959725e-11  3.0797897e-05 -381512.91      1.2204761e-10  4.8541312      27.91351       3888.3214      0.00079470302  0.0017858625  -0.00029001837  8.1249398e-11  8.0099109e-11 -2.025775     
      2100   18.804035      9.9815812e-11  2.719587e-05  -381512.91      4.8807756e-10  4.8541312      27.91351       3888.3214      0.00075340746  0.0036384739  -0.0019795766  -3.1166342e-11  2.6824851e-11 -2.0263306    
      2110   21.1           3.1784274e-10  2.6911125e-05 -381512.91      1.5541817e-09  4.8541312      27.91351       3888.3214      0.00082532815  0.0032428582  -0.0018005827  -1.7036832e-11 -1.7768439e-11 -2.0263683    
      2120   21.2           6.8495933e-10  2.6795634e-05 -381512.91      3.3493018e-09  4.8541312      27.91351       3888.3214      0.00086810474  0.0033518069  -0.0019108328  -4.6038249e-12  1.8505809e-11 -2.0264874    
      2130   21.3           1.2105711e-09  2.6696585e-05 -381512.91      5.9194286e-09  4.8541312      27.91351       3888.3214      0.00084082472  0.0033308458  -0.0018479181  -3.9203356e-11  7.788026e-11  -2.0264232    
      2140   21.4           1.9015038e-09  2.6597498e-05 -381512.91      9.297939e-09   4.8541312      27.91351       3888.3214      0.00083851824  0.0033376779  -0.0018520242   4.4332656e-11  5.2897477e-11 -2.0264188    
      2150   21.5           2.7631344e-09  2.6486846e-05 -381512.91      1.3511125e-08  4.8541312      27.91351       3888.3214      0.00083934847  0.0033488427  -0.001864617    2.7149625e-11 -3.3291026e-11 -2.026427     
      2160   21.6           3.7993762e-09  2.6360675e-05 -381512.91      1.8578122e-08  4.8541312      27.91351       3888.3214      0.00083926964  0.0033510777  -0.0018680087  -5.0980171e-11  7.2386708e-13 -2.0264278    
      2170   21.7           5.0119862e-09  2.6217693e-05 -381512.91      2.450752e-08   4.8541312      27.91351       3888.3214      0.00083882041  0.003350167   -0.0018665405   4.1135706e-11  1.5810497e-10 -2.0264269    
      2180   21.8           6.4017181e-09  2.6057441e-05 -381512.91      3.1303006e-08  4.8541312      27.91351       3888.3214      0.00083904832  0.0033487969  -0.0018648548   7.6882384e-11 -1.3172171e-10 -2.0264262    
      2190   21.9           7.9677709e-09  2.5879401e-05 -381512.91      3.8960663e-08  4.8541312      27.91351       3888.3214      0.00083900615  0.0033482774  -0.0018640768  -4.8907784e-11 -1.7204606e-10 -2.026426     
      2200   22             9.7082131e-09  2.5683509e-05 -381512.91      4.7471046e-08  4.8541312      27.91351       3888.3214      0.00083891167  0.0033485076  -0.00186424    -6.1527158e-12 -5.0363976e-11 -2.0264258    
      2210   22.1           1.1619836e-08  2.5469797e-05 -381512.91      5.6818466e-08  4.8541312      27.91351       3888.3214      0.00083875833  0.0033489734  -0.0018646656   3.4000224e-12 -3.3904151e-11 -2.026426     
      2220   22.2           1.3698468e-08  2.5238436e-05 -381512.91      6.6982522e-08  4.8541312      27.91351       3888.3214      0.00083877799  0.0033490999  -0.001864984    5.5817489e-12  2.2534268e-11 -2.0264261    
      2230   22.3           1.593887e-08   2.4989648e-05 -381512.91      7.7937599e-08  4.8541312      27.91351       3888.3214      0.00083878183  0.0033490776  -0.0018651538   1.5937103e-11 -2.2445606e-10 -2.0264263    
      2240   22.4           1.8334946e-08  2.4723747e-05 -381512.91      8.9653888e-08  4.8541312      27.91351       3888.3214      0.0008387186   0.0033490355  -0.0018652233  -6.9407097e-11  7.5885599e-11 -2.0264263    
      2250   22.5           2.0879739e-08  2.44411e-05   -381512.91      1.0209737e-07  4.8541312      27.91351       3888.3214      0.00083855848  0.0033490308  -0.0018652284   5.1689373e-11  4.4406248e-10 -2.0264262    
      2260   22.6           2.3565583e-08  2.4142126e-05 -381512.91      1.1523056e-07  4.8541312      27.91351       3888.3214      0.00083842604  0.0033490727  -0.001865269   -3.1549011e-11  9.578368e-11  -2.0264262    
      2270   22.7           2.6384114e-08  2.3827278e-05 -381512.91      1.2901257e-07  4.8541312      27.91351       3888.3214      0.00083831886  0.0033491588  -0.0018653977   3.4291303e-14  2.3474003e-10 -2.0264262    
      2280   22.8           2.9326394e-08  2.349708e-05  -381512.91      1.4339967e-07  4.8541312      27.91351       3888.3214      0.00083824463  0.0033492412  -0.0018655904   5.0274796e-11  1.4788718e-10 -2.0264262    
      2290   22.9           3.2382967e-08  2.3152065e-05 -381512.91      1.5834565e-07  4.8541312      27.91351       3888.3214      0.00083816804  0.003349318   -0.0018657367  -3.0510559e-11 -2.1427732e-10 -2.0264263    
      2300   23             3.5543929e-08  2.2792831e-05 -381512.91      1.7380207e-07  4.8541312      27.91351       3888.3214      0.00083805609  0.0033493345  -0.0018658298   9.2788075e-11  6.7049413e-11 -2.0264263    
      2310   23.1           3.8799015e-08  2.2419998e-05 -381512.91      1.8971873e-07  4.8541312      27.91351       3888.3214      0.00083793796  0.0033493565  -0.0018659018  -9.1771108e-11 -3.2097708e-10 -2.0264263    
      2320   23.2           4.2137648e-08  2.2034217e-05 -381512.91      2.0604391e-07  4.8541312      27.91351       3888.3214      0.00083782633  0.0033494179  -0.0018660509  -8.9919778e-12 -5.9852473e-11 -2.0264263    
      2330   23.3           4.5549015e-08  2.1636187e-05 -381512.91      2.2272475e-07  4.8541312      27.91351       3888.3214      0.00083773419  0.0033495078  -0.0018662307  -8.071078e-11  -3.8374354e-11 -2.0264264    
      2340   23.4           4.9022136e-08  2.1226635e-05 -381512.91      2.3970756e-07  4.8541312      27.91351       3888.3214      0.00083761073  0.0033495588  -0.0018663518   6.5814138e-11  4.2024778e-10 -2.0264264    
      2350   23.5           5.2545916e-08  2.0806319e-05 -381512.91      2.5693808e-07  4.8541312      27.91351       3888.3214      0.00083747268  0.0033495952  -0.0018664544  -9.2806189e-11 -9.4519798e-11 -2.0264263    
      2360   23.6           5.6109205e-08  2.037604e-05  -381512.91      2.7436178e-07  4.8541312      27.91351       3888.3214      0.00083736179  0.0033496795  -0.0018666252  -4.8711509e-11 -5.2974462e-10 -2.0264264    
      2370   23.7           5.9700856e-08  1.993663e-05  -381512.91      2.9192417e-07  4.8541312      27.91351       3888.3214      0.0008372474   0.0033497619  -0.0018667893   2.6556655e-10 -3.1085481e-11 -2.0264264    
      2380   23.8           6.3309775e-08  1.9488961e-05 -381512.91      3.09571e-07    4.8541312      27.91351       3888.3214      0.00083710816  0.0033498051  -0.0018668955   1.7065106e-10  7.1975087e-10 -2.0264264    
      2390   23.9           6.6924968e-08  1.9033944e-05 -381512.91      3.2724851e-07  4.8541312      27.91351       3888.3214      0.00083698693  0.0033498786  -0.0018670571  -4.4882137e-11  1.2906655e-10 -2.0264264    
      2400   24             7.0535587e-08  1.857253e-05  -381512.91      3.4490365e-07  4.8541312      27.91351       3888.3214      0.00083687028  0.0033499506  -0.0018672252  -3.3713929e-11 -8.4602324e-10 -2.0264265    
      2410   24.1           7.4130967e-08  1.8105723e-05 -381512.91      3.6248427e-07  4.8541312      27.91351       3888.3214      0.00083673833  0.0033499787  -0.00186733    -2.4677287e-11  1.3340449e-10 -2.0264265    
      2420   24.2           7.7700667e-08  1.7634567e-05 -381512.91      3.7993932e-07  4.8541312      27.91351       3888.3214      0.00083663199  0.0033500498  -0.0018674949   7.2997048e-11  1.1055662e-10 -2.0264265    
      2430   24.3           8.1234496e-08  1.7160172e-05 -381512.91      3.9721898e-07  4.8541312      27.91351       3888.3214      0.0008365117   0.003350114   -0.001867638    6.6610977e-11  1.1128613e-10 -2.0264265    
      2440   24.4           8.4722548e-08  1.6683702e-05 -381512.91      4.1427479e-07  4.8541312      27.91351       3888.3214      0.00083637733  0.0033501657  -0.0018677634   7.9654193e-11  2.13432e-10   -2.0264265    
      2450   24.5           8.8155218e-08  1.6206394e-05 -381512.91      4.310598e-07   4.8541312      27.91351       3888.3214      0.00083626138  0.003350252   -0.0018679452   4.2927414e-11 -9.0658473e-11 -2.0264266    
      2460   24.6           9.152323e-08   1.5729556e-05 -381512.91      4.4752865e-07  4.8541312      27.91351       3888.3214      0.00083613832  0.003350281   -0.0018680484  -4.0606943e-11  3.3323008e-10 -2.0264266    
      2470   24.7           9.4817646e-08  1.5254584e-05 -381512.91      4.6363762e-07  4.8541312      27.91351       3888.3214      0.00083603871  0.0033503442  -0.0018682025  -7.7692682e-11  2.7181121e-10 -2.0264266    
      2480   24.8           9.8029882e-08  1.4782963e-05 -381512.91      4.7934475e-07  4.8541312      27.91351       3888.3214      0.00083591118  0.0033503952  -0.0018683331  -2.9418447e-11 -2.0171257e-10 -2.0264266    
      2490   24.9           1.0115172e-07  1.431629e-05  -381512.91      4.9460986e-07  4.8541312      27.91351       3888.3214      0.00083579439  0.003350454   -0.0018684677   3.9472517e-11  5.1896502e-10 -2.0264266    
      2500   25             1.0417532e-07  1.3856274e-05 -381512.91      5.0939459e-07  4.8541312      27.91351       3888.3214      0.00083569716  0.0033505032  -0.0018686025   1.5373953e-10  6.8380925e-11 -2.0264266    
      2510   25.1           1.0709321e-07  1.3404753e-05 -381512.91      5.2366247e-07  4.8541312      27.91351       3888.3214      0.00083558103  0.0033505308  -0.0018687113   5.3989227e-11 -2.5804307e-10 -2.0264266    
      2520   25.2           1.0989835e-07  1.2963703e-05 -381512.91      5.3737899e-07  4.8541312      27.91351       3888.3214      0.00083547836  0.0033506118  -0.0018688648  -1.5192302e-10  2.0059165e-10 -2.0264267    
      2530   25.3           1.1258409e-07  1.2535246e-05 -381512.91      5.5051166e-07  4.8541312      27.91351       3888.3214      0.00083537146  0.0033506227  -0.0018689534  -2.5549319e-10 -4.3928297e-10 -2.0264267    
      2540   25.4           1.1514423e-07  1.2121659e-05 -381512.91      5.6303017e-07  4.8541312      27.91351       3888.3214      0.00083528199  0.0033506804  -0.0018690954  -8.2461992e-11 -7.4080396e-10 -2.0264267    
      2550   25.5           1.1757305e-07  1.1725377e-05 -381512.91      5.7490659e-07  4.8541312      27.91351       3888.3214      0.00083517025  0.0033507127  -0.0018691846   7.0470269e-11  1.9686267e-10 -2.0264267    
      2560   25.6           1.1986539e-07  1.1348982e-05 -381512.91      5.8611561e-07  4.8541312      27.91351       3888.3214      0.00083509571  0.0033507492  -0.0018693199   5.2984389e-11  7.8702192e-10 -2.0264267    
      2570   25.7           1.2201668e-07  1.0995193e-05 -381512.91      5.9663497e-07  4.8541312      27.91351       3888.3214      0.00083499738  0.0033507737  -0.0018693998   7.0982861e-13  2.0107374e-10 -2.0264267    
      2580   25.8           1.2402309e-07  1.0666836e-05 -381512.91      6.0644588e-07  4.8541312      27.91351       3888.3214      0.0008349163   0.003350815   -0.0018695257   2.2650555e-11 -5.189798e-10  -2.0264268    
      2590   25.9           1.2588163e-07  1.0366815e-05 -381512.91      6.1553371e-07  4.8541312      27.91351       3888.3214      0.00083483404  0.0033508255  -0.0018695962   1.6805629e-11 -7.6501557e-10 -2.0264268    
      2600   26             1.2759027e-07  1.009804e-05  -381512.91      6.238886e-07   4.8541312      27.91351       3888.3214      0.000834746    0.0033508654  -0.0018697087  -1.2337807e-10 -3.8518934e-10 -2.0264268    
      2610   26.1           1.2914816e-07  9.8633401e-06 -381512.91      6.3150635e-07  4.8541312      27.91351       3888.3214      0.00083468545  0.00335087    -0.0018697853   6.1575984e-11  5.5586714e-10 -2.0264268    
      2620   26.2           1.3055574e-07  9.6653918e-06 -381512.91      6.3838913e-07  4.8541312      27.91351       3888.3214      0.00083460356  0.0033508916  -0.0018698719   1.1307899e-10  7.3613238e-10 -2.0264268    
      2630   26.3           1.3181491e-07  9.5065955e-06 -381512.91      6.4454618e-07  4.8541312      27.91351       3888.3214      0.0008345532   0.0033509109  -0.0018699603  -6.5515603e-11  3.0264174e-10 -2.0264268    
      2640   26.4           1.3292909e-07  9.388956e-06  -381512.91      6.4999427e-07  4.8541312      27.91351       3888.3214      0.0008344656   0.0033509104  -0.0018700125   6.5768192e-11  4.8610483e-10 -2.0264268    
      2650   26.5           1.3390328e-07  9.3139717e-06 -381512.91      6.5475783e-07  4.8541312      27.91351       3888.3214      0.00083443132  0.003350933   -0.0018701104   9.0125903e-11  5.5145119e-10 -2.0264269    
      2660   26.6           1.3474396e-07  9.2825508e-06 -381512.91      6.5886862e-07  4.8541312      27.91351       3888.3214      0.00083435609  0.0033509259  -0.0018701586  -4.0492803e-11  6.0480619e-11 -2.0264268    
      2670   26.7           1.3545898e-07  9.2949196e-06 -381512.91      6.6236487e-07  4.8541312      27.91351       3888.3214      0.00083431434  0.0033509286  -0.0018702171   1.4049253e-10  6.0432022e-10 -2.0264269    
      2680   26.8           1.360572e-07   9.3505995e-06 -381512.91      6.6529006e-07  4.8541312      27.91351       3888.3214      0.00083426193  0.0033509476  -0.0018703015   5.6377076e-12  6.4526318e-10 -2.0264269    
      2690   26.9           1.3654826e-07  9.4484416e-06 -381512.91      6.6769122e-07  4.8541312      27.91351       3888.3214      0.00083421579  0.003350911   -0.0018703142  -3.3723202e-11  1.9462102e-10 -2.0264269    
      2700   27             1.3694212e-07  9.5866248e-06 -381512.91      6.6961714e-07  4.8541312      27.91351       3888.3214      0.00083417331  0.0033509473  -0.0018704029   1.0060136e-10  8.9667371e-10 -2.0264269    
      2710   27.1           1.3724876e-07  9.7628112e-06 -381512.91      6.7111653e-07  4.8541312      27.91351       3888.3214      0.00083413723  0.0033509187  -0.0018704347   1.0399698e-10  3.8881923e-10 -2.0264269    
      2720   27.2           1.3747779e-07  9.974212e-06  -381512.91      6.7223642e-07  4.8541312      27.91351       3888.3214      0.00083409484  0.0033509055  -0.0018704557   6.2084516e-11  4.6156225e-10 -2.0264269    
      2730   27.3           1.3763822e-07  1.0217733e-05 -381512.91      6.7302088e-07  4.8541312      27.91351       3888.3214      0.00083406859  0.0033509324  -0.0018705394   4.5794252e-11  3.2874113e-10 -2.0264269    
      2740   27.4           1.3773826e-07  1.0490128e-05 -381512.91      6.7351006e-07  4.8541312      27.91351       3888.3214      0.00083403614  0.0033508937  -0.0018705345  -5.5503782e-11 -3.9171329e-10 -2.0264269    
      2750   27.5           1.3778524e-07  1.0788062e-05 -381512.91      6.7373977e-07  4.8541312      27.91351       3888.3214      0.00083401102  0.0033508931  -0.0018705683  -3.8759998e-11 -3.5096667e-11 -2.0264269    
      2760   27.6           1.3778555e-07  1.1108288e-05 -381512.91      6.7374131e-07  4.8541312      27.91351       3888.3214      0.00083398619  0.0033509113  -0.0018706261  -1.5808123e-10 -8.7216483e-10 -2.0264269    
      2770   27.7           1.3774471e-07  1.144765e-05  -381512.91      6.7354161e-07  4.8541312      27.91351       3888.3214      0.00083397423  0.0033508665  -0.0018706225  -5.1012922e-11 -2.7524811e-10 -2.0264269    
      2780   27.8           1.3766741e-07  1.1803199e-05 -381512.91      6.7316362e-07  4.8541312      27.91351       3888.3214      0.00083393887  0.0033508732  -0.001870638   -1.0971151e-10 -4.2844267e-10 -2.0264269    
      2790   27.9           1.3755762e-07  1.2172191e-05 -381512.91      6.7262679e-07  4.8541312      27.91351       3888.3214      0.00083394437  0.0033508804  -0.0018706903   9.242519e-11   5.3673873e-10 -2.0264269    
      2800   28             1.3741872e-07  1.2552104e-05 -381512.91      6.719476e-07   4.8541312      27.91351       3888.3214      0.00083392161  0.0033508537  -0.0018706796   1.7474914e-10  3.7604218e-10 -2.0264269    
      2810   28.1           1.3725359e-07  1.2940675e-05 -381512.91      6.7114012e-07  4.8541312      27.91351       3888.3214      0.00083390556  0.0033508428  -0.0018706832   1.6180562e-10  9.1318469e-10 -2.0264269    
      2820   28.2           1.370647e-07   1.3335824e-05 -381512.91      6.7021653e-07  4.8541312      27.91351       3888.3214      0.00083390555  0.0033508558  -0.0018707168   6.7667159e-12 -7.9676388e-11 -2.026427     
      2830   28.3           1.3685428e-07  1.373574e-05  -381512.91      6.6918762e-07  4.8541312      27.91351       3888.3214      0.00083390185  0.0033508385  -0.0018707208  -4.0374481e-11 -2.3568945e-10 -2.026427     
      2840   28.4           1.3662433e-07  1.413875e-05  -381512.91      6.6806319e-07  4.8541312      27.91351       3888.3214      0.00083388319  0.0033508192  -0.0018707022   3.0791283e-11 -1.3536131e-10 -2.0264269    
      2850   28.5           1.3637671e-07  1.4543415e-05 -381512.91      6.6685241e-07  4.8541312      27.91351       3888.3214      0.00083389374  0.0033508263  -0.0018707222  -2.8179675e-10 -5.3438482e-10 -2.0264269    
      2860   14.3           2.5529077e-13  1.4786628e-05 -381512.91      1.2483162e-12  4.8541312      27.91351       3888.3214      0.0008339013   0.0033467963  -0.0018707585   1.5071269e-10  3.7204201e-10 -2.0264271    
      2870   14.35          4.449235e-12   1.3611651e-05 -381512.91      2.1755789e-11  4.8541312      27.91351       3888.3214      0.00083389454  0.0033467934  -0.001870751    2.2349787e-13 -1.0386644e-11 -2.0264271    
      2880   17.424         1.4451881e-11  1.3222917e-05 -381512.91      7.0666547e-11  4.8541312      27.91351       3888.3214      0.00083389023  0.0033467898  -0.0018707455  -4.9644095e-12 -5.4022435e-11 -2.0264271    
      2890   28.9           5.2281519e-11  1.3233582e-05 -381512.91      2.5564523e-10  4.8541312      27.91351       3888.3214      0.00083388731  0.0033467886  -0.0018707446   3.6001783e-11  5.6537053e-11 -2.0264271    
      2900   29             1.2433271e-10  1.3185754e-05 -381512.91      6.0795986e-10  4.8541312      27.91351       3888.3214      0.00083388424  0.0033467902  -0.0018707487   2.0883021e-11  9.543936e-12  -2.0264271    
      2910   29.1           2.3212554e-10  1.3151535e-05 -381512.91      1.1350433e-09  4.8541312      27.91351       3888.3214      0.00083387994  0.0033467918  -0.0018707541  -6.3907733e-11 -8.6079096e-11 -2.0264271    
      2920   29.2           3.7804381e-10  1.3114874e-05 -381512.91      1.8485518e-09  4.8541312      27.91351       3888.3214      0.00083387473  0.0033467938  -0.0018707613  -1.0625059e-11  2.1489051e-11 -2.0264271    
      2930   29.3           5.6364809e-10  1.3073742e-05 -381512.91      2.7561163e-09  4.8541312      27.91351       3888.3214      0.0008338675   0.003346797   -0.0018707698   4.4762815e-11  2.0339786e-11 -2.0264271    
      2940   29.4           7.9047669e-10  1.3027195e-05 -381512.91      3.8652587e-09  4.8541312      27.91351       3888.3214      0.00083385833  0.0033468009  -0.0018707792  -3.1116081e-11 -2.9739215e-11 -2.0264271    
      2950   29.5           1.059482e-09   1.2974068e-05 -381512.91      5.1806359e-09  4.8541312      27.91351       3888.3214      0.00083384872  0.0033468053  -0.0018707916  -2.8916407e-11 -1.042905e-10  -2.0264271    
      2960   29.6           1.3713718e-09  1.2914224e-05 -381512.91      6.7057094e-09  4.8541312      27.91351       3888.3214      0.00083383761  0.0033468102  -0.0018708053  -1.2258416e-10 -1.8162783e-11 -2.0264271    
      2970   29.7           1.7264798e-09  1.2847516e-05 -381512.91      8.44211e-09    4.8541312      27.91351       3888.3214      0.00083382374  0.0033468168  -0.0018708199   2.5192576e-11 -8.8677441e-11 -2.0264271    
      2980   29.8           2.1248674e-09  1.2773859e-05 -381512.91      1.0390138e-08  4.8541312      27.91351       3888.3214      0.0008338101   0.0033468234  -0.0018708368  -2.3157707e-11  6.8918364e-11 -2.0264271    
      2990   29.9           2.566307e-09   1.2693337e-05 -381512.91      1.2548682e-08  4.8541312      27.91351       3888.3214      0.00083379395  0.003346831   -0.0018708551   3.1147059e-11  2.5109742e-11 -2.0264271    
      3000   30             3.0503108e-09  1.260602e-05  -381512.91      1.4915355e-08  4.8541312      27.91351       3888.3214      0.00083377722  0.0033468397  -0.0018708749  -2.0147122e-11  1.3705211e-10 -2.0264271    
      3010   30.1           3.5761585e-09  1.251204e-05  -381512.91      1.7486636e-08  4.8541312      27.91351       3888.3214      0.00083375911  0.0033468489  -0.0018708964   4.8418726e-11  1.797709e-10  -2.0264271    
      3020   30.2           4.142905e-09   1.2411576e-05 -381512.91      2.0257902e-08  4.8541312      27.91351       3888.3214      0.00083373985  0.0033468586  -0.0018709199  -7.4609794e-11 -1.6071408e-10 -2.0264271    
      3030   30.3           4.7494058e-09  1.2304824e-05 -381512.91      2.3223559e-08  4.8541312      27.91351       3888.3214      0.00083371877  0.0033468697  -0.0018709442   1.4074279e-11  1.3689544e-10 -2.0264271    
      3040   30.4           5.3943359e-09  1.2192024e-05 -381512.91      2.6377127e-08  4.8541312      27.91351       3888.3214      0.00083369688  0.0033468812  -0.0018709703   4.4359361e-11 -8.1630573e-11 -2.0264271    
      3050   30.5           6.0762035e-09  1.2073437e-05 -381512.91      2.9711311e-08  4.8541312      27.91351       3888.3214      0.00083367318  0.0033468936  -0.0018709974  -2.0758283e-10 -1.8322549e-10 -2.0264271    
      3060   30.6           6.7933728e-09  1.1949351e-05 -381512.91      3.3218112e-08  4.8541312      27.91351       3888.3214      0.00083364923  0.0033469062  -0.0018710262   6.989383e-11   3.8609795e-10 -2.0264271    
      3070   30.7           7.5440758e-09  1.1820083e-05 -381512.91      3.6888886e-08  4.8541312      27.91351       3888.3214      0.00083362386  0.0033469197  -0.0018710561   4.5046906e-11  4.1138713e-11 -2.0264271    
      3080   30.8           8.3264345e-09  1.1685971e-05 -381512.91      4.071445e-08   4.8541312      27.91351       3888.3214      0.00083359633  0.0033469338  -0.0018710862  -5.4987332e-11 -2.8457862e-10 -2.0264271    
      3090   30.9           9.1384713e-09  1.1547375e-05 -381512.91      4.4685133e-08  4.8541312      27.91351       3888.3214      0.00083356962  0.0033469482  -0.0018711191  -2.5445041e-11 -2.1071609e-10 -2.0264271    
      3100   31             9.978129e-09   1.140468e-05  -381512.91      4.8790876e-08  4.8541312      27.91351       3888.3214      0.00083354211  0.0033469634  -0.0018711533   1.9448077e-10  1.0089404e-10 -2.0264271    
      3110   31.1           1.0843282e-08  1.1258286e-05 -381512.91      5.3021288e-08  4.8541312      27.91351       3888.3214      0.00083351163  0.0033469795  -0.0018711869  -1.0721049e-10 -4.5331468e-10 -2.0264271    
      3120   31.2           1.1731755e-08  1.1108618e-05 -381512.91      5.7365722e-08  4.8541312      27.91351       3888.3214      0.00083348248  0.003346995   -0.0018712224   1.0608924e-10  1.5295016e-10 -2.0264272    
      3130   31.3           1.264133e-08   1.0956116e-05 -381512.91      6.1813348e-08  4.8541312      27.91351       3888.3214      0.00083345118  0.0033470115  -0.001871258   -5.0837392e-11 -4.3808381e-10 -2.0264272    
      3140   31.4           1.3569767e-08  1.0801237e-05 -381512.91      6.6353203e-08  4.8541312      27.91351       3888.3214      0.00083342071  0.0033470279  -0.0018712954  -1.4835072e-11 -1.6654818e-10 -2.0264272    
      3150   31.5           1.4514811e-08  1.0644454e-05 -381512.91      7.0974264e-08  4.8541312      27.91351       3888.3214      0.00083338703  0.0033470458  -0.0018713326   1.6652063e-10  3.8837508e-11 -2.0264272    
      3160   31.6           1.5474208e-08  1.0486257e-05 -381512.91      7.5665504e-08  4.8541312      27.91351       3888.3214      0.00083335598  0.003347062   -0.0018713714   1.9529483e-10  3.8768611e-10 -2.0264272    
      3170   31.7           1.6445713e-08  1.0327145e-05 -381512.91      8.0415949e-08  4.8541312      27.91351       3888.3214      0.00083332228  0.0033470798  -0.00187141    -3.745985e-11  -3.1761584e-10 -2.0264272    
      3180   31.8           1.7427102e-08  1.0167632e-05 -381512.91      8.521473e-08   4.8541312      27.91351       3888.3214      0.00083328863  0.003347098   -0.00187145    -6.1927738e-11 -6.8791568e-10 -2.0264272    
      3190   31.9           1.8416186e-08  1.0008243e-05 -381512.91      9.0051134e-08  4.8541312      27.91351       3888.3214      0.0008332554   0.0033471151  -0.0018714897   6.9726001e-11  1.795427e-10  -2.0264272    
      3200   32             1.9410817e-08  9.8495119e-06 -381512.91      9.4914662e-08  4.8541312      27.91351       3888.3214      0.00083322097  0.0033471327  -0.0018715299   1.9725696e-10  7.0792724e-10 -2.0264272    
      3210   32.1           2.04089e-08    9.6919798e-06 -381512.91      9.979507e-08   4.8541312      27.91351       3888.3214      0.00083318599  0.0033471513  -0.0018715703   1.9330781e-10 -1.2986211e-10 -2.0264272    
      3220   32.2           2.1408402e-08  9.5361935e-06 -381512.91      1.0468242e-07  4.8541312      27.91351       3888.3214      0.00083315081  0.0033471687  -0.0018716106   2.1654278e-10  4.9501798e-10 -2.0264272    
      3230   32.3           2.2407362e-08  9.3827054e-06 -381512.91      1.0956712e-07  4.8541312      27.91351       3888.3214      0.00083311745  0.0033471855  -0.0018716532   9.9420299e-11  2.1236099e-10 -2.0264272    
      3240   32.4           2.3403899e-08  9.2320681e-06 -381512.91      1.1443997e-07  4.8541312      27.91351       3888.3214      0.00083308224  0.0033472031  -0.0018716942  -5.5771412e-12  1.8324868e-11 -2.0264272    
      3250   32.5           2.4396223e-08  9.0848373e-06 -381512.91      1.1929221e-07  4.8541312      27.91351       3888.3214      0.00083304713  0.0033472214  -0.0018717352  -4.3678397e-11 -3.3480895e-10 -2.0264272    
      3260   32.6           2.5382639e-08  8.9415629e-06 -381512.91      1.2411557e-07  4.8541312      27.91351       3888.3214      0.00083301207  0.0033472376  -0.0018717772  -1.5927746e-10 -1.1635036e-10 -2.0264272    
      3270   32.7           2.636156e-08   8.8027942e-06 -381512.91      1.2890228e-07  4.8541312      27.91351       3888.3214      0.00083297614  0.0033472549  -0.001871818   -1.7013503e-10 -7.7002566e-10 -2.0264272    
[...]
     13440   13.44          1.0478717e-08  0.00010988966 -381512.91      5.1238644e-08  4.8541312      27.91351       3888.3214     -0.00029659588 -0.00014609245  0.0001506326   5.2701197e-07 -7.5589636e-07 -2.0270401    
     13450   13.45          1.0478717e-08  0.000113811   -381512.91      5.1238644e-08  4.8541312      27.91351       3888.3214     -0.00018820543 -3.3327464e-05 -9.2325864e-05  5.4658847e-07 -7.7890229e-07 -2.0270142    
     13460   13.46          1.0478717e-08  0.00011895227 -381512.91      5.1238644e-08  4.8541312      27.91351       3888.3214     -7.8840111e-05 -0.00023363192 -0.00052581062  5.6389201e-07 -7.859978e-07  -2.026988     
     13470   13.47          1.0478717e-08  0.00012528661 -381512.91      5.1238644e-08  4.8541312      27.91351       3888.3214     -0.00040021032 -0.00043847127 -0.00081441513  5.7873575e-07 -7.7267494e-07 -2.0269756    
     13480   13.48          1.0478717e-08  0.00013190984 -381512.91      5.1238644e-08  4.8541312      27.91351       3888.3214     -0.00023959029 -6.875778e-05  -0.00092749585  5.8958337e-07 -7.4083386e-07 -2.0269388    
     13490   13.49          1.0478717e-08  0.00013921681 -381512.91      5.1238644e-08  4.8541312      27.91351       3888.3214      0.00099550503 -0.00048690726 -0.0017205816   5.9763997e-07 -6.8507939e-07 -2.0268751    
     13500   13.5           1.0478717e-08  0.00014813374 -381512.91      5.1238644e-08  4.8541312      27.91351       3888.3214     -0.0014296224   0.00081975099 -0.0023096669   6.026381e-07  -5.8352281e-07 -2.0267868    
     13510   13.51          1.0478717e-08  0.00015448049 -381512.91      5.1238644e-08  4.8541312      27.91351       3888.3214     -0.00086642746 -0.0019598983  -0.0022638489   6.025945e-07  -4.8009865e-07 -2.0269036    
     13520   13.52          1.0478717e-08  0.00015964759 -381512.91      5.1238644e-08  4.8541312      27.91351       3888.3214     -0.0012943378   0.00033229661 -0.0018291915   5.9932802e-07 -3.6319008e-07 -2.0268117    
     13530   13.53          1.0478717e-08  0.00016377951 -381512.91      5.1238644e-08  4.8541312      27.91351       3888.3214      0.00049647579 -0.00057629601 -0.00060942974  5.9232133e-07 -2.2075324e-07 -2.0268989    
     13540   13.54          1.0478717e-08  0.00016613436 -381512.91      5.1238644e-08  4.8541312      27.91351       3888.3214     -0.00037786867  4.5317932e-05 -0.00034816336  5.8181286e-07 -6.5480775e-08 -2.0268807    
     13550   13.55          1.0478717e-08  0.00016677857 -381512.91      5.1238644e-08  4.8541312      27.91351       3888.3214     -0.00031783318 -0.00050618465 -0.00049410959  5.6938158e-07  8.7633351e-08 -2.0268795    
     13560   13.56          1.0478717e-08  0.00016606033 -381512.91      5.1238644e-08  4.8541312      27.91351       3888.3214     -0.00022156898 -0.0002052165  -0.00045143739  5.5523651e-07  2.3839226e-07 -2.02685      
     13570   13.57          1.0478717e-08  0.00016431588 -381512.91      5.1238644e-08  4.8541312      27.91351       3888.3214     -7.4327222e-05 -0.00015357221 -0.00014044993  5.4014434e-07  3.8145434e-07 -2.0268523    
     13580   13.58          1.0478717e-08  0.00016200377 -381512.91      5.1238644e-08  4.8541312      27.91351       3888.3214     -0.00027775899  9.4403933e-06 -5.8535821e-05  5.2459462e-07  5.111364e-07  -2.0268394    
     13590   13.59          1.0478717e-08  0.00015960026 -381512.91      5.1238644e-08  4.8541312      27.91351       3888.3214     -0.00083816535 -0.00060898508 -3.228531e-05   5.0934512e-07  6.246904e-07  -2.0268678    
     13600   13.6           1.0478717e-08  0.0001575561  -381512.91      5.1238644e-08  4.8541312      27.91351       3888.3214     -0.00038612387 -0.00084674873 -0.00044520915  4.949482e-07   7.2079043e-07 -2.026834     
     13610   13.61          1.0478717e-08  0.00015618664 -381512.91      5.1238644e-08  4.8541312      27.91351       3888.3214     -0.00066174273  5.0998683e-05 -0.00011914013  4.8117607e-07  7.9709194e-07 -2.0268079    
     13620   13.62          1.0478717e-08  0.00015570389 -381512.91      5.1238644e-08  4.8541312      27.91351       3888.3214     -0.00011657879 -0.00095509653  0.00023594378  4.6892947e-07  8.5462008e-07 -2.0268673    
     13630   13.63          1.0478717e-08  0.00015619234 -381512.91      5.1238644e-08  4.8541312      27.91351       3888.3214     -0.0013231864  -0.0018769571  -0.00045748589  4.5683201e-07  8.9669003e-07 -2.0268743    
     13640   13.64          1.0478717e-08  0.00015770086 -381512.91      5.1238644e-08  4.8541312      27.91351       3888.3214     -0.0013243643  -0.00015377912 -0.00056004267  4.4580731e-07  9.2114609e-07 -2.0267767    
     13650   13.65          1.0478717e-08  0.0001603567  -381512.91      5.1238644e-08  4.8541312      27.91351       3888.3214      7.84867e-05   -0.0015102651   0.00023038439  4.3501378e-07  9.2877985e-07 -2.0268738    
     13660   13.66          1.0478717e-08  0.00016448384 -381512.91      5.1238644e-08  4.8541312      27.91351       3888.3214     -0.0024157624  -0.0020362438   0.00051202454  4.2393357e-07  9.1709218e-07 -2.0269492    
     13670   13.67          1.0478717e-08  0.00016928126 -381512.91      5.1238644e-08  4.8541312      27.91351       3888.3214     -0.0033003761  -0.00096420853 -0.0018443115   4.1443468e-07  8.8908558e-07 -2.026739     
     13680   13.68          1.0478717e-08  0.0001750496  -381512.91      5.1238644e-08  4.8541312      27.91351       3888.3214     -0.00029900331 -0.0026483336   0.00017651936  4.0487952e-07  8.4220084e-07 -2.0269168    
     13690   13.69          1.0478717e-08  0.00018329417 -381512.91      5.1238644e-08  4.8541312      27.91351       3888.3214     -0.0019881157  -0.0021814751   0.0012230737   3.931785e-07   7.5878848e-07 -2.0269854    
     13700   13.7           1.0478717e-08  0.00019120059 -381512.91      5.1238644e-08  4.8541312      27.91351       3888.3214     -0.0040016364  -0.0012515544  -0.0022943127   3.8327797e-07  6.6682505e-07 -2.0267161    
     13710   13.71          1.0478717e-08  0.00019865452 -381512.91      5.1238644e-08  4.8541312      27.913511      3888.3214     -0.0015026105  -0.0038481088  -0.00027792327  3.7384265e-07  5.6703145e-07 -2.0269454    
     13720   13.72          1.0478717e-08  0.0002094584  -381512.91      5.1238644e-08  4.8541312      27.91351       3888.3214     -8.1839174e-05 -0.0021101161   0.00044714485  3.601154e-07   4.054568e-07  -2.0268837    
     13730   13.73          1.0478717e-08  0.00021900025 -381512.91      5.1238644e-08  4.8541312      27.91351       3888.3214     -0.0021779658  -0.00024790667 -0.0011672247   3.4719231e-07  2.4660923e-07 -2.0267017    
     13740   13.74          1.0478717e-08  0.00022850737 -381512.91      5.1238644e-08  4.8541312      27.91351       3888.3214     -0.0016569363  -1.1436191e-05 -0.001290254    3.3258828e-07  7.1725898e-08 -2.026667     
     13750   13.75          1.0478717e-08  0.00023819181 -381512.91      5.1238644e-08  4.8541312      27.91351       3888.3214      0.00043428461 -0.00092880024 -0.00050836959  3.1540472e-07 -1.2339962e-07 -2.0267295    
     13760   13.76          1.0478717e-08  0.0002478518  -381512.91      5.1238644e-08  4.8541312      27.91351       3888.3214     -0.0002754739  -3.1177822e-06 -0.00037951781  2.9524155e-07 -3.3522093e-07 -2.0266941    
     13770   13.77          1.0478717e-08  0.00025723805 -381512.91      5.1238644e-08  4.8541312      27.91351       3888.3214     -0.00041162988 -0.00058019343 -0.00049938248  2.7090611e-07 -5.6110278e-07 -2.0267061    
     13780   13.78          1.0478717e-08  0.00026619401 -381512.91      5.1238644e-08  4.8541312      27.91351       3888.3214     -0.00036474214 -0.00062427861 -0.00049411035  2.4097288e-07 -8.0061793e-07 -2.026697     
     13790   13.79          1.0478717e-08  0.00027413323 -381512.91      5.1238644e-08  4.8541312      27.91351       3888.3214     -0.00046610993 -0.00016201713 -8.0158927e-05  2.0520998e-07 -1.0410117e-06 -2.026693     
     13800   13.8           1.0478717e-08  0.00028045923 -381512.91      5.1238644e-08  4.8541312      27.91351       3888.3214     -0.00028614979 -0.00098843963  0.00040213257  1.644989e-07  -1.2666068e-06 -2.026753     
     13810   13.81          1.0478717e-08  0.00028491843 -381512.91      5.1238644e-08  4.8541312      27.91351       3888.3214     -0.0032229314  -0.001402155   -0.00017865864  1.1679814e-07 -1.4770919e-06 -2.0267616    
     13820   13.82          1.0478717e-08  0.00028694472 -381512.91      5.1238644e-08  4.8541312      27.913511      3888.3214     -0.0021739954  -0.0034938286  -0.001392098    6.433031e-08  -1.6553872e-06 -2.0267526    
     13830   13.83          1.0478717e-08  0.00028642611 -381512.91      5.1238644e-08  4.8541312      27.91351       3888.3214     -0.0036669867  -0.0003153805   0.00013376973  5.5479658e-09 -1.8007302e-06 -2.0267131    
     13840   13.84          1.0478717e-08  0.00028234636 -381512.91      5.1238644e-08  4.8541312      27.913511      3888.3214     -9.8020627e-05 -0.0051036495   0.0013620427  -6.4569786e-08 -1.9116682e-06 -2.0269728    
     13850   13.85          1.0478717e-08  0.00027506842 -381512.91      5.1238644e-08  4.8541312      27.91351       3888.3214     -0.0057035543  -0.001563382   -0.0018451019  -1.371372e-07  -1.9668912e-06 -2.0266424    
     13860   13.86          1.0478717e-08  0.00026629557 -381512.91      5.1238644e-08  4.8541312      27.913511      3888.3214     -0.0029555125  -0.0062449849  -0.0029769693  -2.0027571e-07 -1.9703584e-06 -2.0267471    
     13870   13.87          1.0478717e-08  0.00025429223 -381512.91      5.1238644e-08  4.8541312      27.91351       3888.3214     -0.0044872305   0.00052568293 -0.00057612135 -2.7273686e-07 -1.9279572e-06 -2.0265974    
     13880   13.88          1.0478717e-08  0.00023977996 -381512.91      5.1238644e-08  4.8541312      27.913511      3888.3214      0.00039618791 -0.0022785236   0.00028931226 -3.4641567e-07 -1.8364231e-06 -2.0267217    
     13890   13.89          1.0478717e-08  0.00022496434 -381512.91      5.1238644e-08  4.8541312      27.91351       3888.3214     -0.0015227396  -0.00015956175 -0.00031984957 -4.1397792e-07 -1.7098329e-06 -2.0265978    
     13900   13.9           1.0478717e-08  0.00021064474 -381512.91      5.1238644e-08  4.8541312      27.91351       3888.3214     -0.0013319637  -0.0012860097  -0.00051373217 -4.7528936e-07 -1.5597394e-06 -2.0266342    
     13910   13.91          1.0478717e-08  0.00019712432 -381512.91      5.1238644e-08  4.8541312      27.91351       3888.3214     -0.00025847897 -0.0010839273   8.0538686e-06 -5.322367e-07  -1.3891059e-06 -2.0266438    
     13920   13.92          1.0478717e-08  0.0001851232  -381512.91      5.1238644e-08  4.8541312      27.91351       3888.3214     -0.00055447737  0.00012056651 -5.8172957e-05 -5.838197e-07  -1.2073793e-06 -2.0265828    
     13930   13.93          1.0478717e-08  0.00017526298 -381512.91      5.1238644e-08  4.8541312      27.91351       3888.3214     -0.00010086875 -0.00044507229 -0.00017930161 -6.2869664e-07 -1.0266314e-06 -2.0265947    
     13940   13.94          1.0478717e-08  0.0001675592  -381512.91      5.1238644e-08  4.8541312      27.91351       3888.3214     -0.00077365672 -0.0004435238  -0.00041244205 -6.6719883e-07 -8.5236069e-07 -2.0265868    
     13950   13.95          1.0478717e-08  0.0001613073  -381512.91      5.1238644e-08  4.8541312      27.91351       3888.3214     -0.00042162144 -0.00022225416  1.6433785e-05 -7.0286002e-07 -6.7471171e-07 -2.0266002    
     13960   13.96          1.0478717e-08  0.00015636065 -381512.91      5.1238644e-08  4.8541312      27.91351       3888.3214     -5.7689318e-05 -0.00025221818 -6.7417724e-05 -7.3617992e-07 -4.9317029e-07 -2.0265895    
     13970   13.97          1.0478717e-08  0.00015291845 -381512.91      5.1238644e-08  4.8541312      27.91351       3888.3214     -0.00045450052 -0.00018421223 -0.00029466327 -7.6434008e-07 -3.2481416e-07 -2.0265746    
     13980   13.98          1.0478717e-08  0.00015034381 -381512.91      5.1238644e-08  4.8541312      27.91351       3888.3214     -0.0005576759  -0.00037712928 -5.9459007e-05 -7.8947656e-07 -1.5937929e-07 -2.0266005    
     13990   13.99          1.0478717e-08  0.00014825102 -381512.91      5.1238644e-08  4.8541312      27.91351       3888.3214      2.1394154e-05 -0.0003961843  -7.055037e-05  -8.121887e-07   8.0875037e-09 -2.0265906    
     14000   14             1.0478717e-08  0.00014647622 -381512.91      5.1238644e-08  4.8541312      27.91351       3888.3214     -0.00051730211 -0.00010925094 -0.00019692442 -8.3128501e-07  1.6446768e-07 -2.026573     
     14010   14.01          1.0478717e-08  0.00014461077 -381512.91      5.1238644e-08  4.8541312      27.91351       3888.3214     -0.00067721897 -0.000210156   -0.00029153174 -8.4719558e-07  3.1284623e-07 -2.0265711    
     14020   14.02          1.0478717e-08  0.00014226526 -381512.91      5.1238644e-08  4.8541312      27.91351       3888.3214      6.2052749e-05 -0.00059181522 -6.4626223e-05 -8.5999345e-07  4.5386803e-07 -2.0265924    
     14030   14.03          1.0478717e-08  0.00013911244 -381512.91      5.1238644e-08  4.8541312      27.91351       3888.3214     -0.00037131886 -0.00017230926 -2.0055553e-05 -8.6910936e-07  5.8452367e-07 -2.0265778    
     14040   14.04          1.0478717e-08  0.00013490958 -381512.91      5.1238644e-08  4.8541312      27.91351       3888.3214     -0.0006036214  -0.00026193001 -0.00038235795 -8.7407634e-07  6.9979585e-07 -2.0265566    
     14050   14.05          1.0478717e-08  0.00012950993 -381512.91      5.1238644e-08  4.8541312      27.91351       3888.3214     -7.2646132e-05 -0.00065154636 -2.4535264e-05 -8.7462303e-07  7.9539615e-07 -2.0265898    
     14060   14.06          1.0478717e-08  0.00012274879 -381512.91      5.1238644e-08  4.8541312      27.91351       3888.3214     -0.00018748273 -0.0001692579   1.782281e-05  -8.7093129e-07  8.6969817e-07 -2.0265672    
     14070   14.07          1.0478717e-08  0.00011505699 -381512.91      5.1238644e-08  4.8541312      27.91351       3888.3214     -0.00038860232 -0.00020367186 -0.00026442549 -8.6319877e-07  9.1927589e-07 -2.0265487    
     14080   14.08          1.0478717e-08  0.00010662251 -381512.91      5.1238644e-08  4.8541312      27.91351       3888.3214     -0.00021531954 -0.0006611531  -0.00010214961 -8.5190333e-07  9.4621567e-07 -2.0265773    
     14090   14.09          1.0478717e-08  9.751735e-05  -381512.91      5.1238644e-08  4.8541312      27.91351       3888.3214     -0.00013446724 -0.00017648498  5.8935255e-05 -8.3734781e-07  9.5293048e-07 -2.0265614    
     14100   14.1           1.0478717e-08  8.8559551e-05 -381512.91      5.1238644e-08  4.8541312      27.91351       3888.3214     -0.00023091754 -9.6193562e-05 -0.00013617052 -8.2119098e-07  9.4170985e-07 -2.0265435    
     14110   14.11          1.0478717e-08  7.9947361e-05 -381512.91      5.1238644e-08  4.8541312      27.91351       3888.3214     -0.00023354013 -0.00049039717 -0.00018405292 -8.0423208e-07  9.163971e-07  -2.0265586    
     14120   14.12          1.0478717e-08  7.1611046e-05 -381512.91      5.1238644e-08  4.8541312      27.91351       3888.3214     -9.0602794e-05 -0.00015573137  4.32978e-05   -7.8640749e-07  8.7989277e-07 -2.0265557    
     14130   14.13          1.0478717e-08  6.3909074e-05 -381512.91      5.1238644e-08  4.8541312      27.91351       3888.3214     -0.00012884994 -2.9441054e-05 -6.0434351e-05 -7.6796042e-07  8.368191e-07  -2.0265429    
     14140   14.14          1.0478717e-08  5.7082291e-05 -381512.91      5.1238644e-08  4.8541312      27.91351       3888.3214     -0.00014522568 -0.00026271081 -0.00013830609 -7.5025977e-07  7.8934128e-07 -2.0265498    
     14150   14.15          1.0478717e-08  5.0930089e-05 -381512.91      5.1238644e-08  4.8541312      27.91351       3888.3214     -6.3537401e-05 -0.00013832983  1.0377186e-05 -7.3266373e-07  7.3902689e-07 -2.0265541    
     14157   14.157         1.0478717e-08  4.7989204e-05 -381512.91      5.1238644e-08  4.8541312      27.91351       3888.3214      2.144229e-05   0.00020564552  0.00024327686 -7.2356385e-07  7.1214441e-07 -2.0265531    
Loop time of 1495.39 on 1 procs for 1000 steps with 37830 atoms

96.7% CPU use with 1 MPI tasks x 1 OpenMP threads

Minimization stats:
  Stopping criterion = max force evaluations
  Energy initial, next-to-last, final = 
     -381512.911498624  -381512.911498622  -381512.911498623
  Force two-norm initial, final = 4.3383368e-05 0.0001153751
  Force max component initial, final = 3.2783044e-05 7.9997701e-05
  Final line search alpha, max atom move = 1 7.9997701e-05
  Iterations, force evaluations = 1000 2000

MPI task timing breakdown:
Section |  min time  |  avg time  |  max time  |%varavg| %total
---------------------------------------------------------------
Pair    | 1437.2     | 1437.2     | 1437.2     |   0.0 | 96.11
Neigh   | 46.426     | 46.426     | 46.426     |   0.0 |  3.10
Comm    | 4.7938     | 4.7938     | 4.7938     |   0.0 |  0.32
Output  | 0.023387   | 0.023387   | 0.023387   |   0.0 |  0.00
Modify  | 0          | 0          | 0          |   0.0 |  0.00
Other   |            | 6.941      |            |       |  0.46

Nlocal:          37830 ave       37830 max       37830 min
Histogram: 1 0 0 0 0 0 0 0 0 0
Nghost:         214733 ave      214733 max      214733 min
Histogram: 1 0 0 0 0 0 0 0 0 0
Neighs:              0 ave           0 max           0 min
Histogram: 1 0 0 0 0 0 0 0 0 0
FullNghs:  4.64436e+06 ave 4.64436e+06 max 4.64436e+06 min
Histogram: 1 0 0 0 0 0 0 0 0 0

Total # of neighbors = 4644360
Ave neighs/atom = 122.76923
Neighbor list builds = 470
Dangerous builds = 282
unfix           3

write_data      fire_cg_${name}.data
write_data      fire_cg_Ta6Fe7_x-12-10_y10-11_z10-12.data
System init for write_data ...

write_data      bi_minimised.data
System init for write_data ...

print """- step: $(step)
  atoms: $(atoms)
  temp: $(temp)
  press: $(press)
  pe: $(pe)
  ke: $(ke)
  etotal: $(etotal)
  vol: $(vol)
  avecx: $(avecx)
  avecy: $(avecy)
  avecz: $(avecz)
  bvecx: $(bvecx)
  bvecy: $(bvecy)
  bvecz: $(bvecz)
  cvecx: $(cvecx)
  cvecy: $(cvecy)
  cvecz: $(cvecz)
  lx: $(lx)
  ly: $(ly)
  lz: $(lz)
  cella: $(cella)
  cellb: $(cellb)
  cellc: $(cellc)
  cellalpha: $(cellalpha)
  cellbeta: $(cellbeta)
  cellgamma: $(cellgamma)
  pxx: $(pxx)
  pyy: $(pyy)
  pzz: $(pzz)
  pxy: $(pxy)
  pyz: $(pyz)
  pxz: $(pxz)
  xlo: $(xlo)
  xhi: $(xhi)
  ylo: $(ylo)
  yhi: $(yhi)
  zlo: $(zlo)
  zhi: $(zhi)
  xy: $(xy)
  xz: $(xz)
  yz: $(yz)
""" file bi_minimised.data.yaml screen yes universe no
- step: 14157
  atoms: 37830
  temp: 1.047871736119254857e-08
  press: 0.00015678822210457007752
  pe: -381512.91149862320162
  ke: 5.1238643799962898011e-08
  etotal: -381512.91149857197888
  vol: 526851.38918852619827
  avecx: 4.8541312336063686672
  avecy: 0
  avecz: 0
  bvecx: 0
  bvecy: 27.91351045725406621
  bvecz: 0
  cvecx: 0
  cvecy: 0
  cvecz: 3888.3214253468995594
  lx: 4.8541312336063686672
  ly: 27.91351045725406621
  lz: 3888.3214253468995594
  cella: 4.8541312336063686672
  cellb: 27.91351045725406621
  cellc: 3888.3214253468995594
  cellalpha: 90
  cellbeta: 90
  cellgamma: 90
  pxx: 2.1442289570000491018e-05
  pyy: 0.00020564551979174758127
  pzz: 0.00024327685695196206201
  pxy: -7.2356385229162327835e-07
  pyz: -2.0265531186471412717
  pxz: 7.1214440703229881703e-07
  xlo: -8.4703193714286591767e-08
  xhi: 4.8541311489031748749
  ylo: 2.7485829855034084502e-06
  yhi: 27.913513205837052311
  zlo: -0.00035601473436332409456
  zhi: 3888.3210693321652798
  xy: 0
  xz: 0
  yz: 0

[GRACE:debug, proc #0]: Data preparation timer: 1.13803e+09 mcs, graph execution time: 1.06435e+10 mcs, data preparation time fraction: 9.66 %
Total wall time: 3:19:53
