 # Ta6Fe7 with mu structure with box vectors H1=-12-10, H2=10-11, H3=10-12.
  
       37830  atoms
           2  atom types
 
      0.000000000000       4.854131064200  xlo xhi
      0.000000000000      27.913515954420  ylo yhi
      0.000000000000    3888.320713317431  zlo zhi
 
Masses
 
            1   55.84500000             # Fe
            2   180.94788000            # Ta
 
Atoms # atomic
 
         1    1        2.427065532100      12.926693972793    3883.590591212570
         2    1        2.427065532100      15.459078831824    3875.573435102638
         3    1        2.427065532100      17.991463690851    3867.556278992705
         4    1        2.427065532100      20.523848549881    3859.539122882772
         5    1        2.427065532100      23.056233408915    3851.521966772839
         6    1        2.427065532100      25.588618267946    3843.504810662906
         7    1        2.427065532100       0.207487172556    3835.487654552973
         8    1        2.427065532100       2.739872031583    3827.470498443040
         9    1        2.427065532100       5.272256890614    3819.453342333108
        10    1        2.427065532100       7.804641749648    3811.436186223175
        11    1        2.427065532100      10.337026608679    3803.419030113242
        12    1        2.427065532100      12.869411467709    3795.401874003309
        13    1        2.427065532100      15.401796326736    3787.384717893377
        14    1        2.427065532100      17.934181185767    3779.367561783443
        15    1        2.427065532100      20.466566044801    3771.350405673511
        16    1        2.427065532100      22.998950903831    3763.333249563578
        17    1        2.427065532100      25.531335762862    3755.316093453645
        18    1        2.427065532100       0.150204667469    3747.298937343712
        19    1        2.427065532100       2.682589526499    3739.281781233779
        20    1        2.427065532100       5.214974385533    3731.264625123847
        21    1        2.427065532100       7.747359244564    3723.247469013913
        22    1        2.427065532100      10.279744103595    3715.230312903981
        23    1        2.427065532100      12.812128962622    3707.213156794048
        24    1        2.427065532100      15.344513821652    3699.196000684115
        25    1        2.427065532100      17.876898680686    3691.178844574182
        26    1        2.427065532100      20.409283539717    3683.161688464249
        27    1        2.427065532100      22.941668398747    3675.144532354317
        28    1        2.427065532100      25.474053257774    3667.127376244383
        29    1        2.427065532100       0.092922162385    3659.110220134451
        30    1        2.427065532100       2.625307021419    3651.093064024518
        31    1        2.427065532100       5.157691880449    3643.075907914585
        32    1        2.427065532100       7.690076739480    3635.058751804652
        33    1        2.427065532100      10.222461598507    3627.041595694719
        34    1        2.427065532100      12.754846457541    3619.024439584787
        35    1        2.427065532100      15.287231316572    3611.007283474854
        36    1        2.427065532100      17.819616175602    3602.990127364921
        37    1        2.427065532100      20.352001034633    3594.972971254988
        38    1        2.427065532100      22.884385893660    3586.955815145055
        39    1        2.427065532100      25.416770752694    3578.938659035122
        40    1        2.427065532100       0.035639657304    3570.921502925190
        41    1        2.427065532100       2.568024516335    3562.904346815257
        42    1        2.427065532100       5.100409375365    3554.887190705324
        43    1        2.427065532100       7.632794234392    3546.870034595391
        44    1        2.427065532100      10.165179093427    3538.852878485458
        45    1        2.427065532100      12.697563952457    3530.835722375525
        46    1        2.427065532100      15.229948811488    3522.818566265592
        47    1        2.427065532100      17.762333670518    3514.801410155660
        48    1        2.427065532100      20.294718529545    3506.784254045727
        49    1        2.427065532100      22.827103388579    3498.767097935794
        50    1        2.427065532100      25.359488247610    3490.749941825861
        51    1        2.427065532100      27.891873106641    3482.732785715928
        52    1        2.427065532100       2.510742011251    3474.715629605995
        53    1        2.427065532100       5.043126870281    3466.698473496062
        54    1        2.427065532100       7.575511729312    3458.681317386130
        55    1        2.427065532100      10.107896588343    3450.664161276197
        56    1        2.427065532100      12.640281447373    3442.647005166264
        57    1        2.427065532100      15.172666306404    3434.629849056331
        58    1        2.427065532100      17.705051165431    3426.612692946398
        59    1        2.427065532100      20.237436024465    3418.595536836465
        60    1        2.427065532100      22.769820883495    3410.578380726532
        61    1        2.427065532100      25.302205742526    3402.561224616600
        62    1        2.427065532100      27.834590601557    3394.544068506667
        63    1        2.427065532100       2.453459506167    3386.526912396734
        64    1        2.427065532100       4.985844365197    3378.509756286801
        65    1        2.427065532100       7.518229224228    3370.492600176868
        66    1        2.427065532100      10.050614083259    3362.475444066935
        67    1        2.427065532100      12.582998942289    3354.458287957003
        68    1        2.427065532100      15.115383801320    3346.441131847070
        69    1        2.427065532100      17.647768660350    3338.423975737137
        70    1        2.427065532100      20.180153519381    3330.406819627204
        71    1        2.427065532100      22.712538378411    3322.389663517271
        72    1        2.427065532100      25.244923237442    3314.372507407338
        73    1        2.427065532100      27.777308096473    3306.355351297405
        74    1        2.427065532100       2.396177001083    3298.338195187473
        75    1        2.427065532100       4.928561860113    3290.321039077540
        76    1        2.427065532100       7.460946719144    3282.303882967607
        77    1        2.427065532100       9.993331578175    3274.286726857674
        78    1        2.427065532100      12.525716437209    3266.269570747741
        79    1        2.427065532100      15.058101296236    3258.252414637809
        80    1        2.427065532100      17.590486155266    3250.235258527875
        81    1        2.427065532100      20.122871014297    3242.218102417943
        82    1        2.427065532100      22.655255873327    3234.200946308010
        83    1        2.427065532100      25.187640732362    3226.183790198077
        84    1        2.427065532100      27.720025591389    3218.166634088144
        85    1        2.427065532100       2.338894495999    3210.149477978212
        86    1        2.427065532100       4.871279355029    3202.132321868279
        87    1        2.427065532100       7.403664214060    3194.115165758345
        88    1        2.427065532100       9.936049073094    3186.098009648413
        89    1        2.427065532100      12.468433932121    3178.080853538480
        90    1        2.427065532100      15.000818791152    3170.063697428547
        91    1        2.427065532100      17.533203650182    3162.046541318614
        92    1        2.427065532100      20.065588509213    3154.029385208682
        93    1        2.427065532100      22.597973368247    3146.012229098749
        94    1        2.427065532100      25.130358227274    3137.995072988816
        95    1        2.427065532100      27.662743086305    3129.977916878883
        96    1        2.427065532100       2.281611990915    3121.960760768950
        97    1        2.427065532100       4.813996849945    3113.943604659017
        98    1        2.427065532100       7.346381708980    3105.926448549084
        99    1        2.427065532100       9.878766568007    3097.909292439152
       100    1        2.427065532100      12.411151427037    3089.892136329219
       101    1        2.427065532100      14.943536286068    3081.874980219286
       102    1        2.427065532100      17.475921145098    3073.857824109353
       103    1        2.427065532100      20.008306004132    3065.840667999420
       104    1        2.427065532100      22.540690863159    3057.823511889487
       105    1        2.427065532100      25.073075722190    3049.806355779554
       106    1        2.427065532100      27.605460581221    3041.789199669622
       107    1        2.427065532100       2.224329485831    3033.772043559689
       108    1        2.427065532100       4.756714344865    3025.754887449756
       109    1        2.427065532100       7.289099203892    3017.737731339823
       110    1        2.427065532100       9.821484062923    3009.720575229890
       111    1        2.427065532100      12.353868921953    3001.703419119957
       112    1        2.427065532100      14.886253780987    2993.686263010025
       113    1        2.427065532100      17.418638640018    2985.669106900092
       114    1        2.427065532100      19.951023499045    2977.651950790159
       115    1        2.427065532100      22.483408358075    2969.634794680226
       116    1        2.427065532100      25.015793217106    2961.617638570293
       117    1        2.427065532100      27.548178076140    2953.600482460360
       118    1        2.427065532100       2.167046980750    2945.583326350427
       119    1        2.427065532100       4.699431839777    2937.566170240495
       120    1        2.427065532100       7.231816698808    2929.549014130562
       121    1        2.427065532100       9.764201557839    2921.531858020629
       122    1        2.427065532100      12.296586416873    2913.514701910696
       123    1        2.427065532100      14.828971275903    2905.497545800763
       124    1        2.427065532100      17.361356134930    2897.480389690830
       125    1        2.427065532100      19.893740993961    2889.463233580897
       126    1        2.427065532100      22.426125852991    2881.446077470965
       127    1        2.427065532100      24.958510712026    2873.428921361032
       128    1        2.427065532100      27.490895571056    2865.411765251099
       129    1        2.427065532100       2.109764475663    2857.394609141166
       130    1        2.427065532100       4.642149334693    2849.377453031233
       131    1        2.427065532100       7.174534193724    2841.360296921300
       132    1        2.427065532100       9.706919052758    2833.343140811367
       133    1        2.427065532100      12.239303911789    2825.325984701435
       134    1        2.427065532100      14.771688770816    2817.308828591502
       135    1        2.427065532100      17.304073629846    2809.291672481569
       136    1        2.427065532100      19.836458488877    2801.274516371636
       137    1        2.427065532100      22.368843347911    2793.257360261704
       138    1        2.427065532100      24.901228206942    2785.240204151770
       139    1        2.427065532100      27.433613065969    2777.223048041838
       140    1        2.427065532100       2.052481970579    2769.205891931905
       141    1        2.427065532100       4.584866829609    2761.188735821972
       142    1        2.427065532100       7.117251688644    2753.171579712039
       143    1        2.427065532100       9.649636547674    2745.154423602106
       144    1        2.427065532100      12.182021406701    2737.137267492174
       145    1        2.427065532100      14.714406265732    2729.120111382240
       146    1        2.427065532100      17.246791124762    2721.102955272308
       147    1        2.427065532100      19.779175983796    2713.085799162375
       148    1        2.427065532100      22.311560842827    2705.068643052442
       149    1        2.427065532100      24.843945701854    2697.051486942509
       150    1        2.427065532100      27.376330560885    2689.034330832576
       151    1        2.427065532100       1.995199465498    2681.017174722644
       152    1        2.427065532100       4.527584324529    2673.000018612711
       153    1        2.427065532100       7.059969183560    2664.982862502778
       154    1        2.427065532100       9.592354042590    2656.965706392845
       155    1        2.427065532100      12.124738901617    2648.948550282912
       156    1        2.427065532100      14.657123760651    2640.931394172979
       157    1        2.427065532100      17.189508619682    2632.914238063046
       158    1        2.427065532100      19.721893478712    2624.897081953114
       159    1        2.427065532100      22.254278337739    2616.879925843181
       160    1        2.427065532100      24.786663196770    2608.862769733248
       161    1        2.427065532100      27.319048055804    2600.845613623315
       162    1        2.427065532100       1.937916960414    2592.828457513382
       163    1        2.427065532100       4.470301819445    2584.811301403449
       164    1        2.427065532100       7.002686678476    2576.794145293517
       165    1        2.427065532100       9.535071537503    2568.776989183584
       166    1        2.427065532100      12.067456396537    2560.759833073651
       167    1        2.427065532100      14.599841255567    2552.742676963718
       168    1        2.427065532100      17.132226114598    2544.725520853785
       169    1        2.427065532100      19.664610973628    2536.708364743852
       170    1        2.427065532100      22.196995832655    2528.691208633919
       171    1        2.427065532100      24.729380691690    2520.674052523987
       172    1        2.427065532100      27.261765550720    2512.656896414054
       173    1        2.427065532100       1.880634455330    2504.639740304121
       174    1        2.427065532100       4.413019314361    2496.622584194188
       175    1        2.427065532100       6.945404173388    2488.605428084255
       176    1        2.427065532100       9.477789032422    2480.588271974322
       177    1        2.427065532100      12.010173891453    2472.571115864389
       178    1        2.427065532100      14.542558750485    2464.553959754457
       179    1        2.427065532100      17.074943609514    2456.536803644524
       180    1        2.427065532100      19.607328468546    2448.519647534591
       181    1        2.427065532100      22.139713327575    2440.502491424658
       182    1        2.427065532100      24.672098186607    2432.485335314725
       183    1        2.427065532100      27.204483045636    2424.468179204792
       184    1        2.427065532100       1.823351950248    2416.451023094859
       185    1        2.427065532100       4.355736809279    2408.433866984927
       186    1        2.427065532100       6.888121668308    2400.416710874994
       187    1        2.427065532100       9.420506527340    2392.399554765061
       188    1        2.427065532100      11.952891386371    2384.382398655128
       189    1        2.427065532100      14.485276245401    2376.365242545195
       190    1        2.427065532100      17.017661104432    2368.348086435262
       191    1        2.427065532100      19.550045963460    2360.330930325330
       192    1        2.427065532100      22.082430822493    2352.313774215397
       193    1        2.427065532100      24.614815681523    2344.296618105464
       194    1        2.427065532100      27.147200540554    2336.279461995531
       195    1        2.427065532100       1.766069445164    2328.262305885598
       196    1        2.427065532100       4.298454304193    2320.245149775666
       197    1        2.427065532100       6.830839163225    2312.227993665732
       198    1        2.427065532100       9.363224022256    2304.210837555800
       199    1        2.427065532100      11.895608881287    2296.193681445867
       200    1        2.427065532100      14.427993740317    2288.176525335934
       201    1        2.427065532100      16.960378599348    2280.159369226001
       202    1        2.427065532100      19.492763458378    2272.142213116068
       203    1        2.427065532100      22.025148317409    2264.125057006136
       204    1        2.427065532100      24.557533176439    2256.107900896202
       205    1        2.427065532100      27.089918035470    2248.090744786270
       206    1        2.427065532100       1.708786940082    2240.073588676337
       207    1        2.427065532100       4.241171799111    2232.056432566404
       208    1        2.427065532100       6.773556658141    2224.039276456471
       209    1        2.427065532100       9.305941517172    2216.022120346538
       210    1        2.427065532100      11.838326376203    2208.004964236606
       211    1        2.427065532100      14.370711235233    2199.987808126672
       212    1        2.427065532100      16.903096094264    2191.970652016740
       213    1        2.427065532100      19.435480953294    2183.953495906807
       214    1        2.427065532100      21.967865812325    2175.936339796874
       215    1        2.427065532100      24.500250671355    2167.919183686941
       216    1        2.427065532100      27.032635530386    2159.902027577009
       217    1        2.427065532100       1.651504434996    2151.884871467076
       218    1        2.427065532100       4.183889294027    2143.867715357143
       219    1        2.427065532100       6.716274153057    2135.850559247210
       220    1        2.427065532100       9.248659012088    2127.833403137277
       221    1        2.427065532100      11.781043871120    2119.816247027344
       222    1        2.427065532100      14.313428730149    2111.799090917411
       223    1        2.427065532100      16.845813589181    2103.781934807479
       224    1        2.427065532100      19.378198448210    2095.764778697546
       225    1        2.427065532100      21.910583307241    2087.747622587613
       226    1        2.427065532100      24.442968166271    2079.730466477680
       227    1        2.427065532100      26.975353025302    2071.713310367747
       228    1        2.427065532100       1.594221929914    2063.696154257814
       229    1        2.427065532100       4.126606788943    2055.678998147881
       230    1        2.427065532100       6.658991647973    2047.661842037948
       231    1        2.427065532100       9.191376507006    2039.644685928015
       232    1        2.427065532100      11.723761366035    2031.627529818083
       233    1        2.427065532100      14.256146225067    2023.610373708150
       234    1        2.427065532100      16.788531084096    2015.593217598217
       235    1        2.427065532100      19.320915943126    2007.576061488284
       236    1        2.427065532100      21.853300802159    1999.558905378351
       237    1        2.427065532100      24.385685661187    1991.541749268418
       238    1        2.427065532100      26.918070520220    1983.524593158486
       239    1        2.427065532100       1.536939424830    1975.507437048553
       240    1        2.427065532100       4.069324283861    1967.490280938620
       241    1        2.427065532100       6.601709142891    1959.473124828687
       242    1        2.427065532100       9.134094001920    1951.455968718754
       243    1        2.427065532100      11.666478860952    1943.438812608821
       244    1        2.427065532100      14.198863719981    1935.421656498889
       245    1        2.427065532100      16.731248579013    1927.404500388956
       246    1        2.427065532100      19.263633438044    1919.387344279023
       247    1        2.427065532100      21.796018297073    1911.370188169090
       248    1        2.427065532100      24.328403156105    1903.353032059157
       249    1        2.427065532100      26.860788015134    1895.335875949224
       250    1        2.427065532100       1.479656919746    1887.318719839291
       251    1        2.427065532100       4.012041778777    1879.301563729359
       252    1        2.427065532100       6.544426637805    1871.284407619426
       253    1        2.427065532100       9.076811496838    1863.267251509493
       254    1        2.427065532100      11.609196355868    1855.250095399560
       255    1        2.427065532100      14.141581214899    1847.232939289627
       256    1        2.427065532100      16.673966073929    1839.215783179694
       257    1        2.427065532100      19.206350932958    1831.198627069761
       258    1        2.427065532100      21.738735791991    1823.181470959829
       259    1        2.427065532100      24.271120651019    1815.164314849896
       260    1        2.427065532100      26.803505510052    1807.147158739963
       261    1        2.427065532100       1.422374414662    1799.130002630030
       262    1        2.427065532100       3.954759273693    1791.112846520097
       263    1        2.427065532100       6.487144132723    1783.095690410164
       264    1        2.427065532100       9.019528991754    1775.078534300231
       265    1        2.427065532100      11.551913850784    1767.061378190299
       266    1        2.427065532100      14.084298709815    1759.044222080366
       267    1        2.427065532100      16.616683568845    1751.027065970433
       268    1        2.427065532100      19.149068427876    1743.009909860500
       269    1        2.427065532100      21.681453286907    1734.992753750567
       270    1        2.427065532100      24.213838145937    1726.975597640635
       271    1        2.427065532100      26.746223004968    1718.958441530702
       272    1        2.427065532100       1.365091909578    1710.941285420769
       273    1        2.427065532100       3.897476768609    1702.924129310836
       274    1        2.427065532100       6.429861627639    1694.906973200903
       275    1        2.427065532100       8.962246486670    1686.889817090970
       276    1        2.427065532100      11.494631345700    1678.872660981037
       277    1        2.427065532100      14.027016204731    1670.855504871105
       278    1        2.427065532100      16.559401063761    1662.838348761172
       279    1        2.427065532100      19.091785922794    1654.821192651239
       280    1        2.427065532100      21.624170781823    1646.804036541306
       281    1        2.427065532100      24.156555640853    1638.786880431373
       282    1        2.427065532100      26.688940499884    1630.769724321440
       283    1        2.427065532100       1.307809404494    1622.752568211507
       284    1        2.427065532100       3.840194263526    1614.735412101575
       285    1        2.427065532100       6.372579122555    1606.718255991642
       286    1        2.427065532100       8.904963981586    1598.701099881709
       287    1        2.427065532100      11.437348840616    1590.683943771776
       288    1        2.427065532100      13.969733699647    1582.666787661843
       289    1        2.427065532100      16.502118558679    1574.649631551910
       290    1        2.427065532100      19.034503417708    1566.632475441977
       291    1        2.427065532100      21.566888276739    1558.615319332045
       292    1        2.427065532100      24.099273135769    1550.598163222112
       293    1        2.427065532100      26.631657994800    1542.581007112179
       294    1        2.427065532100       1.250526899412    1534.563851002246
       295    1        2.427065532100       3.782911758441    1526.546694892313
       296    1        2.427065532100       6.315296617471    1518.529538782381
       297    1        2.427065532100       8.847681476504    1510.512382672448
       298    1        2.427065532100      11.380066335532    1502.495226562515
       299    1        2.427065532100      13.912451194565    1494.478070452582
       300    1        2.427065532100      16.444836053593    1486.460914342649
       301    1        2.427065532100      18.977220912626    1478.443758232716
       302    1        2.427065532100      21.509605771655    1470.426602122783
       303    1        2.427065532100      24.041990630685    1462.409446012851
       304    1        2.427065532100      26.574375489718    1454.392289902918
       305    1        2.427065532100       1.193244394326    1446.375133792985
       306    1        2.427065532100       3.725629253358    1438.357977683052
       307    1        2.427065532100       6.258014112389    1430.340821573119
       308    1        2.427065532100       8.790398971418    1422.323665463186
       309    1        2.427065532100      11.322783830450    1414.306509353253
       310    1        2.427065532100      13.855168689479    1406.289353243321
       311    1        2.427065532100      16.387553548511    1398.272197133388
       312    1        2.427065532100      18.919938407542    1390.255041023455
       313    1        2.427065532100      21.452323266571    1382.237884913522
       314    1        2.427065532100      23.984708125603    1374.220728803589
       315    1        2.427065532100      26.517092984632    1366.203572693656
       316    1        2.427065532100       1.135961889244    1358.186416583723
       317    1        2.427065532100       3.668346748274    1350.169260473791
       318    1        2.427065532100       6.200731607305    1342.152104363858
       319    1        2.427065532100       8.733116466336    1334.134948253925
       320    1        2.427065532100      11.265501325364    1326.117792143992
       321    1        2.427065532100      13.797886184397    1318.100636034059
       322    1        2.427065532100      16.330271043427    1310.083479924127
       323    1        2.427065532100      18.862655902458    1302.066323814194
       324    1        2.427065532100      21.395040761488    1294.049167704261
       325    1        2.427065532100      23.927425620517    1286.032011594328
       326    1        2.427065532100      26.459810479550    1278.014855484395
       327    1        2.427065532100       1.078679384160    1269.997699374462
       328    1        2.427065532100       3.611064243190    1261.980543264529
       329    1        2.427065532100       6.143449102221    1253.963387154597
       330    1        2.427065532100       8.675833961250    1245.946231044664
       331    1        2.427065532100      11.208218820282    1237.929074934731
       332    1        2.427065532100      13.740603679311    1229.911918824798
       333    1        2.427065532100      16.272988538342    1221.894762714865
       334    1        2.427065532100      18.805373397374    1213.877606604932
       335    1        2.427065532100      21.337758256404    1205.860450494999
       336    1        2.427065532100      23.870143115435    1197.843294385067
       337    1        2.427065532100      26.402527974465    1189.826138275134
       338    1        2.427065532100       1.021396879075    1181.808982165201
       339    1        2.427065532100       3.553781738106    1173.791826055268
       340    1        2.427065532100       6.086166597136    1165.774669945335
       341    1        2.427065532100       8.618551456168    1157.757513835402
       342    1        2.427065532100      11.150936315197    1149.740357725469
       343    1        2.427065532100      13.683321174229    1141.723201615537
       344    1        2.427065532100      16.215706033259    1133.706045505604
       345    1        2.427065532100      18.748090892289    1125.688889395671
       346    1        2.427065532100      21.280475751320    1117.671733285738
       347    1        2.427065532100      23.812860610350    1109.654577175805
       348    1        2.427065532100      26.345245469382    1101.637421065872
       349    1        2.427065532100       0.964114373992    1093.620264955940
       350    1        2.427065532100       3.496499233021    1085.603108846007
       351    1        2.427065532100       6.028884092053    1077.585952736074
       352    1        2.427065532100       8.561268951084    1069.568796626141
       353    1        2.427065532100      11.093653810114    1061.551640516208
       354    1        2.427065532100      13.626038669146    1053.534484406275
       355    1        2.427065532100      16.158423528174    1045.517328296343
       356    1        2.427065532100      18.690808387206    1037.500172186410
       357    1        2.427065532100      21.223193246235    1029.483016076477
       358    1        2.427065532100      23.755578105267    1021.465859966544
       359    1        2.427065532100      26.287962964298    1013.448703856611
       360    1        2.427065532100       0.906831868907    1005.431547746678
       361    1        2.427065532100       3.439216727938     997.414391636745
       362    1        2.427065532100       5.971601586970     989.397235526813
       363    1        2.427065532100       8.503986446000     981.380079416880
       364    1        2.427065532100      11.036371305031     973.362923306947
       365    1        2.427065532100      13.568756164061     965.345767197014
       366    1        2.427065532100      16.101141023091     957.328611087081
       367    1        2.427065532100      18.633525882123     949.311454977148
       368    1        2.427065532100      21.165910741152     941.294298867216
       369    1        2.427065532100      23.698295600184     933.277142757283
       370    1        2.427065532100      26.230680459214     925.259986647350