
thermo          10
thermo_style    custom step time temp fnorm pe ke lx ly lz pxx pyy pzz pxy pxz pyz

timestep        0.001

min_style       fire
minimize        0.0 1.0e-8 2000 4000

CITE-CITE-CITE-CITE-CITE-CITE-CITE-CITE-CITE-CITE-CITE-CITE-CITE

Your simulation uses code contributions which should be cited:

- Type Label Framework: https://doi.org/10.1021/acs.jpcb.3c08419

@Article{Gissinger24,
 author = {Jacob R. Gissinger, Ilia Nikiforov, Yaser Afshar, Brendon Waters, Moon-ki Choi, Daniel S. Karls, Alexander Stukowski, Wonpil Im, Hendrik Heinz, Axel Kohlmeyer, and Ellad B. Tadmor},
 title = {Type Label Framework for Bonded Force Fields in LAMMPS},
 journal = {J. Phys. Chem. B},
 year =    2024,
 volume =  128,
 number =  13,
 pages =   {3282–-3297}
}

CITE-CITE-CITE-CITE-CITE-CITE-CITE-CITE-CITE-CITE-CITE-CITE-CITE

Switching to 'neigh_modify every 1 delay 0 check yes' setting during minimization
Neighbor list info ...
  update: every = 1 steps, delay = 0 steps, check = yes
  max neighbors/atom: 2000, page size: 100000
  master list distance cutoff = 7.4
  ghost atom cutoff = 7.4
  binsize = 3.7, bins = 2 2 59
  1 neighbor lists, perpetual/occasional/extra = 1 0 0
  (1) pair grace, perpetual
      attributes: full, newton on
      pair build: full/bin/atomonly
      stencil: full/bin/3d
      bin: standard
  Parameters for fire:
    dmax  delaystep dtgrow dtshrink alpha0 alphashrink tmax tmin   integrator   halfstepback   abcfire  
     0.1     20      1.1     0.5     0.25     0.99      10  0.02 eulerimplicit      yes          no     
[GRACE] Atoms padding: new num. of atoms = 351 (incl. 0.855% fake atoms)
[GRACE] Neighbours padding: extending new num. of neighbours = 24434 (incl. 0.990% fake neighbours)
Per MPI rank memory allocation (min/avg/max) = 4.525 | 4.525 | 4.525 Mbytes
   Step          Time           Temp          Fnorm          PotEng         KinEng           Lx             Ly             Lz            Pxx            Pyy            Pzz            Pxy            Pxz            Pyz      
         0   0              0              46.759017     -3379.481       0              4.8541311      4.2038008      218.27177      195687.81      195687.81      410629.78      1.5546573e-05 -1.3929832e-10  1.561515e-11 
        10   0.01           233.49714      40.755343     -3394.2305      10.473111      4.8541311      4.2038008      218.27177      181584.73      181584.73      404233.94      1.5237968e-05  1.562656e-10  -8.8989751e-11
        20   0.02           717.50534      27.530948     -3422.8954      32.182461      4.8541311      4.2038008      218.27177      155142.33      155142.33      392389.78      1.4574341e-05 -1.7636927e-10  9.5752208e-11
        30   0.070738431    1481.2919      6.7800383     -3453.4705      66.440785      4.8541311      4.2038008      218.27177      134606.8       134606.8       372339.5       1.3243278e-05  1.0867432e-11  1.4315681e-11
        40   0.24463636     251.77696      2.8401305     -3459.7461      11.29302       4.8541311      4.2038008      218.27177      135126.91      135126.91      314505.29      1.2829553e-05  4.9244709e-11  8.4199163e-11
        50   0.5            32.447784      1.2166819     -3461.496       1.4553892      4.8541311      4.2038008      218.27177      133508.78      133508.78      303511.42      1.2771728e-05 -1.2154988e-10  8.9713448e-11
        60   0.6            14.758111      0.53062553    -3462.0973      0.66194955     4.8541311      4.2038008      218.27177      132105.09      132105.09      303183.46      1.2813211e-05 -7.1907852e-11  6.4062769e-11
        70   0.7            13.330888      0.30950796    -3462.431       0.5979339      4.8541311      4.2038008      218.27177      131732.71      131732.71      302672.45      1.2823146e-05 -1.9573605e-11 -2.1499086e-10
        80   0.8            14.803264      0.15546417    -3462.6449      0.66397479     4.8541311      4.2038008      218.27177      131586.33      131586.33      302189.89      1.2815362e-05 -1.4792522e-10 -6.1592521e-11
        90   0.9            5.7946782      0.21109688    -3462.7159      0.25991027     4.8541311      4.2038008      218.27177      131438.36      131438.36      301889.99      1.2818972e-05 -5.037254e-10  -2.4504961e-11
       100   0.5            0.0031943901   0.03920403    -3462.7162      0.00014327884  4.8541311      4.2038008      218.27177      131459.67      131459.67      301654.29      1.2818169e-05  8.052862e-11  -8.2237066e-11
       110   0.55           0.005849755    0.02436008    -3462.7164      0.00026238064  4.8541311      4.2038008      218.27177      131472.02      131472.02      301634.86      1.2817353e-05 -1.072217e-10  -1.0540832e-10
       120   1.2            0.016040901    0.020594108   -3462.7169      0.00071948688  4.8541311      4.2038008      218.27177      131468.81      131468.81      301639.1       1.2817104e-05  7.8123259e-11  6.52952e-11  
       130   1.3            0.033160396    0.014677938   -3462.7176      0.0014873522   4.8541311      4.2038008      218.27177      131467.19      131467.19      301640.01      1.2816579e-05 -2.4972782e-10 -2.7838027e-11
       140   1.4            0.031295375    0.0083174718  -3462.7182      0.0014036999   4.8541311      4.2038008      218.27177      131465.39      131465.39      301640.78      1.2815271e-05  8.5702079e-12  7.471094e-11 
       150   1.5            0.010478734    0.0066675128  -3462.7184      0.00047000547  4.8541311      4.2038008      218.27177      131464.39      131464.39      301641.08      1.2813689e-05  1.3330641e-10 -8.190294e-12 
       160   0.8            3.7068499e-06  0.0041121858  -3462.7185      1.6626434e-07  4.8541311      4.2038008      218.27177      131464.24      131464.24      301641.18      1.2812474e-05 -8.6422448e-11 -1.1354444e-10
       170   0.425          2.0629722e-07  0.0010164069  -3462.7185      9.2531048e-09  4.8541311      4.2038008      218.27177      131464.42      131464.42      301641.14      1.2812507e-05 -5.0639452e-11 -1.0546865e-10
       180   0.45           1.2466376e-06  0.00092182423 -3462.7185      5.5915774e-08  4.8541311      4.2038008      218.27177      131464.41      131464.41      301641.16      1.2812372e-05  5.3914073e-11  5.0765645e-11
       190   0.76499225     3.3647444e-06  0.00089197277 -3462.7185      1.5091979e-07  4.8541311      4.2038008      218.27177      131464.4       131464.4       301641.16      1.2812291e-05  6.8291175e-11 -7.0681771e-11
       200   2              1.3220927e-05  0.00082486712 -3462.7185      5.9300179e-07  4.8541311      4.2038008      218.27177      131464.39      131464.39      301641.19      1.2812237e-05 -1.899383e-10  -2.3314477e-10
       210   2.1            3.5388758e-05  0.0006398619  -3462.7185      1.5873015e-06  4.8541311      4.2038008      218.27177      131464.36      131464.36      301641.24      1.2811798e-05  5.7561083e-12 -2.8141363e-10
       220   2.2            5.920728e-05   0.0003869104  -3462.7185      2.6556401e-06  4.8541311      4.2038008      218.27177      131464.32      131464.32      301641.31      1.2810494e-05  8.5299012e-11  1.4405568e-10
       230   2.3            3.3670008e-05  0.00035794802 -3462.7185      1.51021e-06    4.8541311      4.2038008      218.27177      131464.3       131464.3       301641.38      1.280867e-05   1.4735451e-10 -9.0667859e-11
       240   1.2            2.0768338e-10  8.8168157e-05 -3462.7185      9.3152789e-12  4.8541311      4.2038008      218.27177      131464.26      131464.26      301641.42      1.2807087e-05 -1.2044831e-10 -2.5145982e-10
       250   0.625          2.5620236e-11  1.5045102e-05 -3462.7185      1.1491514e-12  4.8541311      4.2038008      218.27177      131464.26      131464.26      301641.42      1.2807017e-05  8.6741955e-11  1.0644123e-10
       260   0.65           1.6084794e-10  7.7434891e-06 -3462.7185      7.2145561e-12  4.8541311      4.2038008      218.27177      131464.26      131464.26      301641.42      1.2806934e-05 -1.1765276e-10  1.10428e-10  
       270   0.898425       2.8697559e-10  6.9975027e-06 -3462.7185      1.2871794e-11  4.8541311      4.2038008      218.27177      131464.26      131464.26      301641.42      1.2807099e-05  1.79714e-11    5.4888883e-11
       280   2.4165899      7.9249894e-10  6.5275197e-06 -3462.7185      3.5546169e-11  4.8541311      4.2038008      218.27177      131464.26      131464.26      301641.42      1.280684e-05  -1.301928e-10  -3.2284247e-11
       290   2.9            2.1528071e-09  5.0991811e-06 -3462.7185      9.6560438e-11  4.8541311      4.2038008      218.27177      131464.26      131464.26      301641.42      1.2806366e-05 -5.9105962e-12 -1.5672558e-10
       300   3              3.640361e-09   3.1186459e-06 -3462.7185      1.632821e-10   4.8541311      4.2038008      218.27177      131464.26      131464.26      301641.42      1.2805333e-05  1.2939426e-11 -1.8916027e-10
       310   3.1            1.9429987e-09  1.6319852e-06 -3462.7185      8.7149844e-11  4.8541311      4.2038008      218.27177      131464.26      131464.26      301641.42      1.2803995e-05 -1.5335643e-11 -4.051365e-11 
       320   3.2            2.5453406e-10  4.6120667e-07 -3462.7185      1.1416685e-11  4.8541311      4.2038008      218.27177      131464.26      131464.26      301641.42      1.2802307e-05 -8.5464082e-12  2.4167791e-10
       330   0.825          5.1829497e-16  8.9503204e-08 -3462.7185      2.3247224e-17  4.8541311      4.2038008      218.27177      131464.26      131464.26      301641.42      1.2802231e-05 -4.7125004e-11 -2.4140707e-10
       340   0.85           6.4643767e-15  6.1027921e-08 -3462.7185      2.8994844e-16  4.8541311      4.2038008      218.27177      131464.26      131464.26      301641.42      1.2802159e-05 -5.0479665e-11 -8.3014763e-11
       350   1.05875        1.4830415e-14  5.8337629e-08 -3462.7185      6.6519261e-16  4.8541311      4.2038008      218.27177      131464.26      131464.26      301641.42      1.2802243e-05  9.5048737e-12 -1.7877799e-11
       360   2.8245855      4.4152814e-14  5.5195139e-08 -3462.7185      1.9803981e-15  4.8541311      4.2038008      218.27177      131464.26      131464.26      301641.42      1.2802038e-05 -1.8290891e-10 -7.4739807e-11
       370   3.7            1.3195778e-13  4.4375121e-08 -3462.7185      5.9187381e-15  4.8541311      4.2038008      218.27177      131464.26      131464.26      301641.42      1.2801701e-05 -7.9473524e-11  1.1646278e-10
       380   3.8            2.3565329e-13  2.8604555e-08 -3462.7185      1.0569821e-14  4.8541311      4.2038008      218.27177      131464.26      131464.26      301641.42      1.2800779e-05  7.1166743e-11 -2.0364966e-10
       390   3.9            1.9617018e-13  1.4645975e-08 -3462.7185      8.7988741e-15  4.8541311      4.2038008      218.27177      131464.26      131464.26      301641.42      1.2799468e-05 -1.1014471e-10  2.1996868e-10
       395   3.95           7.5969857e-14  9.3105058e-09 -3462.7185      3.4074965e-15  4.8541311      4.2038008      218.27177      131464.26      131464.26      301641.42      1.279828e-05  -5.670975e-11  -1.8949468e-10
Loop time of 2.90798 on 2 procs for 395 steps with 348 atoms

102.0% CPU use with 1 MPI tasks x 2 OpenMP threads

Minimization stats:
  Stopping criterion = force tolerance
  Energy initial, next-to-last, final = 
     -3379.48103761495    -3462.718457237    -3462.718457237
  Force two-norm initial, final = 46.759017 9.3105058e-09
  Force max component initial, final = 3.6946846 4.0514633e-09
  Final line search alpha, max atom move = 0 0
  Iterations, force evaluations = 395 403

MPI task timing breakdown:
Section |  min time  |  avg time  |  max time  |%varavg| %total
---------------------------------------------------------------
Pair    | 2.8902     | 2.8902     | 2.8902     |   0.0 | 99.39
Neigh   | 0.00098062 | 0.00098062 | 0.00098062 |   0.0 |  0.03
Comm    | 0.01135    | 0.01135    | 0.01135    |   0.0 |  0.39
Output  | 0.0017399  | 0.0017399  | 0.0017399  |   0.0 |  0.06
Modify  | 0          | 0          | 0          |   0.0 |  0.00
Other   |            | 0.003727   |            |       |  0.13

Nlocal:            348 ave         348 max         348 min
Histogram: 1 0 0 0 0 0 0 0 0 0
Nghost:           7425 ave        7425 max        7425 min
Histogram: 1 0 0 0 0 0 0 0 0 0
Neighs:              0 ave           0 max           0 min
Histogram: 1 0 0 0 0 0 0 0 0 0
FullNghs:        46660 ave       46660 max       46660 min
Histogram: 1 0 0 0 0 0 0 0 0 0

Total # of neighbors = 46660
Ave neighs/atom = 134.08046
Neighbor list builds = 1
Dangerous builds = 0

#write_data      fire_${name}.data

fix             3 all box/relax z 0.0 vmax 0.001
min_style       cg
minimize        0.0 1.0e-8 1000 2000
Switching to 'neigh_modify every 1 delay 0 check yes' setting during minimization
WARNING: Energy due to 3 extra global DOFs will be included in minimizer energies
 (src/min.cpp:219)
Per MPI rank memory allocation (min/avg/max) = 5.65 | 5.65 | 5.65 Mbytes
   Step          Time           Temp          Fnorm          PotEng         KinEng           Lx             Ly             Lz            Pxx            Pyy            Pzz            Pxy            Pxz            Pyz      
       395   0.395          7.5969857e-14  9.3107837e-09 -3462.7185      3.4074965e-15  4.8541311      4.2038008      218.27177      131464.26      131464.26      301641.42      1.2798206e-05 -2.4840467e-11 -2.0069935e-10
       400   0.4            7.5969857e-14  0.27217853    -3466.7382      3.4074965e-15  4.8541311      4.2038008      219.36313      121451.2       121451.2       276937.9       1.2454521e-05 -1.7254133e-10 -3.1796165e-10
       410   0.41           7.5969857e-14  0.7678487     -3473.7847      3.4074965e-15  4.8541311      4.2038008      221.54584      102324.29      102324.29      230660.47      1.1823159e-05 -6.389831e-11  -5.362107e-10 
       420   0.42           7.5969857e-14  1.2076266     -3479.5973      3.4074965e-15  4.8541311      4.2038008      223.72856      84286.44       84286.44       188100.35      1.1250009e-05 -1.5179745e-10 -6.4736002e-10
       430   0.43           7.5969857e-14  1.6007387     -3484.2733      3.4074965e-15  4.8541311      4.2038008      225.91128      67251.639      67251.639      148815.03      1.0733118e-05 -2.7735571e-10 -6.3037844e-10
       440   0.44           7.5969857e-14  1.9553094     -3487.8979      3.4074965e-15  4.8541311      4.2038008      228.094        51147.238      51147.238      112379.87      1.0269399e-05 -2.0178413e-11 -4.8567684e-10
       450   0.45           7.5969857e-14  2.2778269     -3490.5447      3.4074965e-15  4.8541311      4.2038008      230.27672      35912.978      35912.978      78410.851      9.8560723e-06 -4.5425338e-11 -7.3030696e-10
       460   0.46           7.5969857e-14  2.572594      -3492.2779      3.4074965e-15  4.8541311      4.2038008      232.45943      21499.983      21499.983      46589.468      9.4884056e-06 -2.0354462e-10 -6.5390771e-10
       470   0.47           7.5969857e-14  2.8407118     -3493.154       3.4074965e-15  4.8541311      4.2038008      234.64215      7869.0945      7869.0945      16687.816      9.1621276e-06 -1.7037073e-10 -6.5578427e-10
       480   0.48           7.5969857e-14  1.4727724     -3493.8219      3.4074965e-15  4.8541311      4.2038008      236.09251     -2547.0104     -2547.0104      111.3682       8.9925943e-06 -4.8404688e-11 -1.7482547e-11
       490   0.49           7.5969857e-14  0.14589625    -3493.9137      3.4074965e-15  4.8541311      4.2038008      236.20345     -3566.404      -3566.404       337.51646      9.0432919e-06  3.1590355e-11 -9.7432808e-11
       500   0.5            7.5969857e-14  0.17057334    -3493.9142      3.4074965e-15  4.8541311      4.2038008      236.22865     -3775.952      -3775.952       107.94278      9.0055853e-06 -2.3631196e-10  5.8113961e-11
       510   0.51           7.5969857e-14  0.14344063    -3493.9144      3.4074965e-15  4.8541311      4.2038008      236.23464     -3809.1872     -3809.1872      50.121031      8.9973766e-06 -3.2246688e-10  2.5267102e-11
       520   0.52           7.5969857e-14  0.15410931    -3493.9146      3.4074965e-15  4.8541311      4.2038008      236.23302     -3752.7511     -3752.7511      19.826228      9.0071519e-06 -2.3782049e-10  1.8792016e-10
       530   0.53           7.5969857e-14  0.19319144    -3493.9164      3.4074965e-15  4.8541311      4.2038008      236.2357      -3788.7724     -3788.7724     -48.971679      9.0182669e-06 -9.7267295e-11 -6.680992e-10 
       540   0.54           7.5969857e-14  0.16513846    -3493.9166      3.4074965e-15  4.8541311      4.2038008      236.24059     -3829.1524     -3829.1524     -66.324515      9.0317482e-06 -2.9792105e-10 -9.7460384e-10
       550   0.55           7.5969857e-14  0.13488113    -3493.9168      3.4074965e-15  4.8541311      4.2038008      236.24138     -3824.9241     -3824.9241     -72.815207      9.0482149e-06 -5.2680265e-10 -7.5613726e-10
       560   0.56           7.5969857e-14  0.13464837    -3493.9169      3.4074965e-15  4.8541311      4.2038008      236.24004     -3794.8126     -3794.8126     -114.68703      9.066141e-06  -3.5791936e-10 -3.9891404e-10
       570   0.57           7.5969857e-14  0.10372239    -3493.9172      3.4074965e-15  4.8541311      4.2038008      236.24294     -3775.2569     -3775.2569     -279.12439      9.0531347e-06  3.9521929e-10  4.5980081e-10
       580   0.58           7.5969857e-14  0.056376324   -3493.9187      3.4074965e-15  4.8541311      4.2038008      236.22454     -3679.3432     -3679.3432      46.605152      9.0229745e-06 -2.4901013e-10 -3.427026e-10 
       590   0.59           7.5969857e-14  0.032768526   -3493.9192      3.4074965e-15  4.8541311      4.2038008      236.22943     -3717.9727     -3717.9727     -37.394787      9.0412327e-06 -6.6199603e-11  1.9716892e-10
       600   0.6            7.5969857e-14  0.049920052   -3493.9195      3.4074965e-15  4.8541311      4.2038008      236.23157     -3745.9268     -3745.9268     -28.450541      9.0191404e-06 -3.1734194e-11  4.6849451e-11
       610   0.61           7.5969857e-14  0.058158053   -3493.9197      3.4074965e-15  4.8541311      4.2038008      236.2302      -3695.8657     -3695.8657     -25.424003      9.0388935e-06 -7.8671736e-11 -3.5511599e-10
       620   0.62           7.5969857e-14  0.058819816   -3493.9197      3.4074965e-15  4.8541311      4.2038008      236.23002     -3696.0338     -3696.0338     -38.549309      9.0446991e-06  7.7490984e-11 -7.900298e-10 
       630   0.63           7.5969857e-14  0.06773577    -3493.9198      3.4074965e-15  4.8541311      4.2038008      236.23406     -3737.2531     -3737.2531     -79.379135      9.0372714e-06  1.3948139e-11 -5.8671203e-10
       640   0.64           7.5969857e-14  0.032460419   -3493.9201      3.4074965e-15  4.8541311      4.2038008      236.23129     -3734.2972     -3734.2972     -11.286384      9.0452852e-06 -2.0516549e-11  3.1607388e-10
       650   0.65           7.5969857e-14  0.017720125   -3493.9202      3.4074965e-15  4.8541311      4.2038008      236.23076     -3721.9848     -3721.9848     -12.121116      9.0267971e-06 -6.1992592e-11  4.7356991e-11
       660   0.66           7.5969857e-14  0.0074620652  -3493.9202      3.4074965e-15  4.8541311      4.2038008      236.23037     -3723.9288     -3723.9288     -4.0872702      9.0299959e-06 -2.9151317e-12  6.4280519e-11
       670   0.67           7.5969857e-14  0.0080465303  -3493.9203      3.4074965e-15  4.8541311      4.2038008      236.23016     -3723.3654     -3723.3654     -5.479368       9.0345198e-06 -3.7011146e-11 -1.3510175e-11
       680   0.68           7.5969857e-14  0.0059441735  -3493.9203      3.4074965e-15  4.8541311      4.2038008      236.23031     -3721.3596     -3721.3596     -4.6796326      9.0332202e-06 -1.4619948e-10  1.0040144e-10
       690   0.69           7.5969857e-14  0.007238661   -3493.9203      3.4074965e-15  4.8541311      4.2038008      236.23054     -3725.8133     -3725.8133     -5.4050916      9.0291455e-06  9.4834003e-12  1.2309969e-10
       700   0.7            7.5969857e-14  0.006567374   -3493.9203      3.4074965e-15  4.8541311      4.2038008      236.23014     -3723.3594     -3723.3594     -4.9359705      9.0261287e-06  2.0291557e-10 -5.3155097e-11
       710   0.71           7.5969857e-14  0.0046761342  -3493.9203      3.4074965e-15  4.8541311      4.2038008      236.23012     -3720.7468     -3720.7468     -3.5365582      9.0300279e-06 -1.1996337e-10 -6.2869145e-11
       720   0.72           7.5969857e-14  0.0053674408  -3493.9203      3.4074965e-15  4.8541311      4.2038008      236.23039     -3724.6657     -3724.6657     -3.8951261      9.0376302e-06 -7.5203033e-11  4.827496e-10 
       730   0.73           7.5969857e-14  0.0028996562  -3493.9203      3.4074965e-15  4.8541311      4.2038008      236.23028     -3722.9156     -3722.9156     -1.8943985      9.0349235e-06  1.8926229e-10 -5.0447495e-11
       740   0.74           7.5969857e-14  0.0027863282  -3493.9203      3.4074965e-15  4.8541311      4.2038008      236.23018     -3722.4197     -3722.4197     -1.7904751      9.0302202e-06 -1.4313682e-10 -1.3831208e-10
       750   0.75           7.5969857e-14  0.0033057282  -3493.9203      3.4074965e-15  4.8541311      4.2038008      236.23016     -3721.6886     -3721.6886     -2.3711011      9.023425e-06   5.1697525e-11  4.2449811e-10
       760   0.76           7.5969857e-14  0.0019000166  -3493.9203      3.4074965e-15  4.8541311      4.2038008      236.23018     -3722.2197     -3722.2197     -1.4051064      9.0225159e-06  2.1881964e-11  1.8738968e-10
       770   0.77           7.5969857e-14  0.0016060678  -3493.9203      3.4074965e-15  4.8541311      4.2038008      236.23016     -3722.6229     -3722.6229     -1.1400521      9.0291765e-06  5.461267e-12  -5.1257949e-10
       780   0.78           7.5969857e-14  0.0013900655  -3493.9203      3.4074965e-15  4.8541311      4.2038008      236.23011     -3721.8002     -3721.8002     -0.98940967     9.0355025e-06 -7.5461426e-11  2.7579399e-10
       790   0.79           7.5969857e-14  0.0011536389  -3493.9203      3.4074965e-15  4.8541311      4.2038008      236.2301      -3721.7244     -3721.7244     -0.81707728     9.0353411e-06 -2.2405956e-10  3.0961788e-10
       800   0.8            7.5969857e-14  0.00092983604 -3493.9203      3.4074965e-15  4.8541311      4.2038008      236.23015     -3722.3389     -3722.3389     -0.65236735     9.0314093e-06  1.5125493e-10 -1.6853818e-10
       810   0.81           7.5969857e-14  0.00072545731 -3493.9203      3.4074965e-15  4.8541311      4.2038008      236.23015     -3722.222      -3722.222      -0.50159447     9.0278495e-06  2.2800787e-10 -3.8805433e-11
       820   0.82           7.5969857e-14  0.0007107575  -3493.9203      3.4074965e-15  4.8541311      4.2038008      236.23014     -3722.0667     -3722.0667     -0.50355795     9.0282211e-06 -4.5424453e-10  8.9266799e-11
       830   0.83           7.5969857e-14  0.00054630747 -3493.9203      3.4074965e-15  4.8541311      4.2038008      236.23011     -3722.0219     -3722.0219     -0.3651597      9.0290604e-06 -5.9003824e-11  1.2237574e-10
       840   0.84           7.5969857e-14  0.00050037602 -3493.9203      3.4074965e-15  4.8541311      4.2038008      236.23011     -3721.9783     -3721.9783     -0.35761749     9.0309118e-06  8.2014948e-10 -2.5177641e-10
       850   0.85           7.5969857e-14  0.00049944254 -3493.9203      3.4074965e-15  4.8541311      4.2038008      236.23011     -3721.9292     -3721.9292     -0.34779868     9.0330237e-06 -3.6527759e-10  1.8452072e-10
       860   0.86           7.5969857e-14  0.00046249996 -3493.9203      3.4074965e-15  4.8541311      4.2038008      236.2301      -3721.9019     -3721.9019     -0.30931848     9.0320686e-06 -5.5730757e-10  1.2589513e-10
       870   0.87           7.5969857e-14  0.0003930014  -3493.9203      3.4074965e-15  4.8541311      4.2038008      236.23009     -3721.8934     -3721.8934     -0.23754971     9.0283724e-06  6.6826727e-10 -1.3137485e-10
       880   0.88           7.5969857e-14  0.00042902289 -3493.9203      3.4074965e-15  4.8541311      4.2038008      236.23009     -3721.8048     -3721.8048     -0.24477472     9.0273668e-06  3.8911531e-10 -4.5941068e-11
       890   0.89           7.5969857e-14  0.00035084098 -3493.9203      3.4074965e-15  4.8541311      4.2038008      236.2301      -3721.9123     -3721.9123     -0.18955039     9.0293631e-06 -8.2922703e-10  1.2322907e-10
       900   0.9            7.5969857e-14  0.00048274874 -3493.9203      3.4074965e-15  4.8541311      4.2038008      236.23009     -3721.9436     -3721.9436     -0.24848573     9.0312531e-06  3.0073873e-11 -4.2413846e-10
       910   0.91           7.5969857e-14  0.00036320139 -3493.9203      3.4074965e-15  4.8541311      4.2038008      236.23008     -3721.7777     -3721.7777     -0.18136131     9.0310603e-06  7.2874715e-10 -4.1530082e-10
       920   0.92           7.5969857e-14  0.00025887994 -3493.9203      3.4074965e-15  4.8541311      4.2038008      236.23007     -3721.7127     -3721.7127     -0.12283346     9.0311584e-06 -3.7490866e-11  2.3006975e-10
       930   0.93           7.5969857e-14  0.00026417516 -3493.9203      3.4074965e-15  4.8541311      4.2038008      236.23007     -3721.7496     -3721.7496     -0.11161057     9.0310255e-06 -3.8328507e-10  2.4518972e-10
       940   0.94           7.5969857e-14  0.00038575045 -3493.9203      3.4074965e-15  4.8541311      4.2038008      236.23009     -3721.8729     -3721.8729     -0.1535143      9.0286872e-06  2.0018498e-10 -3.1096938e-10
       950   0.95           7.5969857e-14  0.00033082804 -3493.9203      3.4074965e-15  4.8541311      4.2038008      236.23008     -3721.8732     -3721.8732     -0.12968908     9.0259412e-06  4.3775013e-10 -5.9366379e-10
       960   0.96           7.5969857e-14  0.00031684111 -3493.9203      3.4074965e-15  4.8541311      4.2038008      236.23008     -3721.7288     -3721.7288     -0.1241214      9.0256868e-06  2.4096e-10    -3.2393529e-10
       970   0.97           7.5969857e-14  0.00021226122 -3493.9203      3.4074965e-15  4.8541311      4.2038008      236.23007     -3721.682      -3721.682      -0.079821144    9.0270693e-06 -3.3361706e-10  2.42722e-10  
       980   0.98           7.5969857e-14  0.00018141167 -3493.9203      3.4074965e-15  4.8541311      4.2038008      236.23007     -3721.7323     -3721.7323     -0.063716328    9.0281759e-06  7.4169934e-12  2.7341396e-10
       990   0.99           7.5969857e-14  0.00024361203 -3493.9203      3.4074965e-15  4.8541311      4.2038008      236.23007     -3721.774      -3721.774      -0.080178156    9.0301218e-06  6.4206801e-11  7.7158862e-11
      1000   1              7.5969857e-14  0.00026479733 -3493.9203      3.4074965e-15  4.8541311      4.2038008      236.23007     -3721.765      -3721.765      -0.086545413    9.0326284e-06  3.6453964e-10 -6.8695741e-10
      1010   1.01           7.5969857e-14  0.00021773969 -3493.9203      3.4074965e-15  4.8541311      4.2038008      236.23007     -3721.7417     -3721.7417     -0.070554577    9.0337828e-06  4.0243642e-10 -5.2918027e-10
      1020   1.02           7.5969857e-14  0.00016066959 -3493.9203      3.4074965e-15  4.8541311      4.2038008      236.23007     -3721.7271     -3721.7271     -0.050030936    9.0337727e-06  1.4893026e-10 -9.9585111e-12
      1030   1.03           7.5969857e-14  0.00015752741 -3493.9203      3.4074965e-15  4.8541311      4.2038008      236.23007     -3721.7208     -3721.7208     -0.047404974    9.0328379e-06 -6.0885758e-11  4.3402321e-10
      1040   1.04           7.5969857e-14  0.00012349607 -3493.9203      3.4074965e-15  4.8541311      4.2038008      236.23007     -3721.7182     -3721.7182     -0.03592678     9.0316846e-06 -3.1542513e-10  3.0568802e-10
      1050   1.05           7.5969857e-14  0.00014486356 -3493.9203      3.4074965e-15  4.8541311      4.2038008      236.23007     -3721.7361     -3721.7361     -0.040032951    9.0299689e-06 -4.4332212e-10 -4.7707681e-11
      1060   1.06           7.5969857e-14  0.00014819827 -3493.9203      3.4074965e-15  4.8541311      4.2038008      236.23007     -3721.7556     -3721.7556     -0.040445893    9.0266239e-06 -2.3048027e-10 -5.2571623e-10
      1070   1.07           7.5969857e-14  0.00013621027 -3493.9203      3.4074965e-15  4.8541311      4.2038008      236.23007     -3721.7488     -3721.7488     -0.036120969    9.0241182e-06  2.1424407e-10 -2.2208542e-10
      1080   1.08           7.5969857e-14  0.00012980927 -3493.9203      3.4074965e-15  4.8541311      4.2038008      236.23007     -3721.7302     -3721.7302     -0.033962556    9.02327e-06    3.6188281e-10 -2.2204852e-10
      1090   1.09           7.5969857e-14  0.00011430735 -3493.9203      3.4074965e-15  4.8541311      4.2038008      236.23007     -3721.7237     -3721.7237     -0.029252534    9.0240497e-06  5.5675414e-10  1.0091815e-10
      1100   1.1            7.5969857e-14  0.00011619403 -3493.9203      3.4074965e-15  4.8541311      4.2038008      236.23007     -3721.7349     -3721.7349     -0.029479837    9.0264138e-06  5.6775048e-10  3.9263934e-10
      1110   1.11           7.5969857e-14  0.00010322426 -3493.9203      3.4074965e-15  4.8541311      4.2038008      236.23007     -3721.7433     -3721.7433     -0.02606614     9.0286962e-06  2.649453e-10   5.1131122e-10
      1120   1.12           7.5969857e-14  0.00012208381 -3493.9203      3.4074965e-15  4.8541311      4.2038008      236.23007     -3721.7431     -3721.7431     -0.030580728    9.0309551e-06 -3.1147678e-10 -1.3621805e-10
      1130   1.13           7.5969857e-14  0.00013283643 -3493.9203      3.4074965e-15  4.8541311      4.2038008      236.23007     -3721.7298     -3721.7298     -0.03353712     9.03325e-06   -7.2258481e-10 -8.2205461e-10
      1140   1.14           7.5969857e-14  0.0001195243  -3493.9203      3.4074965e-15  4.8541311      4.2038008      236.23007     -3721.7125     -3721.7125     -0.03024189     9.0347071e-06 -8.733232e-10  -7.6688382e-10
      1150   1.15           7.5969857e-14  0.00011532837 -3493.9203      3.4074965e-15  4.8541311      4.2038008      236.23007     -3721.6989     -3721.6989     -0.029229972    9.0349498e-06 -5.8808264e-10 -4.0192443e-10
      1160   1.16           7.5969857e-14  0.00011313596 -3493.9203      3.4074965e-15  4.8541311      4.2038008      236.23007     -3721.6878     -3721.6878     -0.028831685    9.034567e-06  -3.3354326e-10 -3.9635707e-11
      1170   1.17           7.5969857e-14  0.00010864808 -3493.9203      3.4074965e-15  4.8541311      4.2038008      236.23007     -3721.6828     -3721.6828     -0.028032951    9.033066e-06   4.3941069e-10  2.6660583e-10
      1180   1.18           7.5969857e-14  9.3381785e-05 -3493.9203      3.4074965e-15  4.8541311      4.2038008      236.23007     -3721.6869     -3721.6869     -0.024298491    9.0313487e-06  6.3155139e-10  3.4102022e-10
      1190   1.19           7.5969857e-14  0.00010106559 -3493.9203      3.4074965e-15  4.8541311      4.2038008      236.23007     -3721.7031     -3721.7031     -0.026552908    9.0295858e-06  5.3704931e-10  2.6312335e-10
      1200   1.2            7.5969857e-14  0.00012011408 -3493.9203      3.4074965e-15  4.8541311      4.2038008      236.23007     -3721.7292     -3721.7292     -0.032135436    9.0267285e-06  6.4723408e-11  2.8786972e-11
      1210   1.21           7.5969857e-14  0.00012428836 -3493.9203      3.4074965e-15  4.8541311      4.2038008      236.23007     -3721.7464     -3721.7464     -0.033981784    9.0237646e-06 -2.4295263e-10 -1.0586281e-10
      1220   1.22           7.5969857e-14  0.00014924217 -3493.9203      3.4074965e-15  4.8541311      4.2038008      236.23007     -3721.7506     -3721.7506     -0.041982361    9.0211357e-06 -8.7155196e-10 -5.3427253e-11
      1230   1.23           7.5969857e-14  0.00015155245 -3493.9203      3.4074965e-15  4.8541311      4.2038008      236.23007     -3721.7414     -3721.7414     -0.044001818    9.0190982e-06 -1.3840993e-09 -2.0785106e-10
      1240   1.24           7.5969857e-14  0.00012678704 -3493.9203      3.4074965e-15  4.8541311      4.2038008      236.23007     -3721.7325     -3721.7325     -0.037890988    9.0185676e-06 -9.1535281e-10 -1.3198372e-10
      1250   1.25           7.5969857e-14  0.00011974493 -3493.9203      3.4074965e-15  4.8541311      4.2038008      236.23007     -3721.7329     -3721.7329     -0.036815483    9.020008e-06  -2.7483462e-10 -1.1766634e-10
      1260   1.26           7.5969857e-14  9.8829583e-05 -3493.9203      3.4074965e-15  4.8541311      4.2038008      236.23007     -3721.7337     -3721.7337     -0.031222677    9.022359e-06   3.3918903e-10  3.0235314e-10
      1270   1.27           7.5969857e-14  8.8964923e-05 -3493.9203      3.4074965e-15  4.8541311      4.2038008      236.23007     -3721.7348     -3721.7348     -0.028915313    9.0247271e-06  6.01662e-10    3.6595108e-10
      1280   1.28           7.5969857e-14  9.9521485e-05 -3493.9203      3.4074965e-15  4.8541311      4.2038008      236.23007     -3721.7384     -3721.7384     -0.033261498    9.0279255e-06  7.866809e-10   1.7386574e-10
      1290   1.29           7.5969857e-14  9.1129199e-05 -3493.9203      3.4074965e-15  4.8541311      4.2038008      236.23007     -3721.7397     -3721.7397     -0.031282344    9.0316307e-06  2.807387e-10  -2.8805421e-10
      1300   1.3            7.5969857e-14  9.446472e-05  -3493.9203      3.4074965e-15  4.8541311      4.2038008      236.23007     -3721.7425     -3721.7425     -0.033395282    9.0337226e-06  6.1365465e-11 -1.8866744e-10
      1310   1.31           7.5969857e-14  0.00012306216 -3493.9203      3.4074965e-15  4.8541311      4.2038008      236.23007     -3721.748      -3721.748      -0.044829048    9.0362331e-06 -5.6461393e-10 -2.5564177e-10
      1320   1.32           7.5969857e-14  0.00013286791 -3493.9203      3.4074965e-15  4.8541311      4.2038008      236.23007     -3721.748      -3721.748      -0.05012568     9.038555e-06  -1.2872356e-09 -2.7108e-11   
      1330   1.33           7.5969857e-14  0.00012673314 -3493.9203      3.4074965e-15  4.8541311      4.2038008      236.23007     -3721.7446     -3721.7446     -0.049729339    9.0397866e-06 -1.5237307e-09 -1.735567e-10 
      1340   1.34           7.5969857e-14  9.7124087e-05 -3493.9203      3.4074965e-15  4.8541311      4.2038008      236.23007     -3721.7388     -3721.7388     -0.039353257    9.0398788e-06 -1.3407044e-09 -1.6157328e-10
      1350   1.35           7.5969857e-14  6.9433894e-05 -3493.9203      3.4074965e-15  4.8541311      4.2038008      236.23007     -3721.7337     -3721.7337     -0.028981158    9.0385299e-06 -6.0321182e-10 -2.6858e-10   
      1360   1.36           7.5969857e-14  7.3633018e-05 -3493.9203      3.4074965e-15  4.8541311      4.2038008      236.23007     -3721.7317     -3721.7317     -0.031647438    9.0360306e-06  1.8546171e-10 -1.7804472e-10
      1370   1.37           7.5969857e-14  7.9475821e-05 -3493.9203      3.4074965e-15  4.8541311      4.2038008      236.23007     -3721.7241     -3721.7241     -0.035041201    9.031172e-06   1.0002239e-09  2.8215014e-10
      1380   1.38           7.5969857e-14  7.8784505e-05 -3493.9203      3.4074965e-15  4.8541311      4.2038008      236.23007     -3721.7134     -3721.7134     -0.035805265    9.0258201e-06  1.2788223e-09  5.4394507e-10
      1390   1.39           7.5969857e-14  9.3622299e-05 -3493.9203      3.4074965e-15  4.8541311      4.2038008      236.23007     -3721.7094     -3721.7094     -0.043875533    9.0198327e-06  7.3180992e-10  9.0952254e-10
      1395   1.395          7.5969857e-14  9.7916866e-05 -3493.9203      3.4074965e-15  4.8541311      4.2038008      236.23007     -3721.6777     -3721.6777      0.02652281     9.0163149e-06  1.2509256e-10  8.1387195e-10
Loop time of 13.5703 on 2 procs for 1000 steps with 348 atoms

103.1% CPU use with 1 MPI tasks x 2 OpenMP threads

Minimization stats:
  Stopping criterion = max iterations
  Energy initial, next-to-last, final = 
       -3462.718457237  -3493.92026892557  -3493.92026892558
  Force two-norm initial, final = 838.5555 0.00012257336
  Force max component initial, final = 838.5555 7.3732739e-05
  Final line search alpha, max atom move = 1 7.3732739e-05
  Iterations, force evaluations = 1000 1915

MPI task timing breakdown:
Section |  min time  |  avg time  |  max time  |%varavg| %total
---------------------------------------------------------------
Pair    | 13.378     | 13.378     | 13.378     |   0.0 | 98.58
Neigh   | 0.020345   | 0.020345   | 0.020345   |   0.0 |  0.15
Comm    | 0.044284   | 0.044284   | 0.044284   |   0.0 |  0.33
Output  | 0.0019616  | 0.0019616  | 0.0019616  |   0.0 |  0.01
Modify  | 0          | 0          | 0          |   0.0 |  0.00
Other   |            | 0.1256     |            |       |  0.93

Nlocal:            348 ave         348 max         348 min
Histogram: 1 0 0 0 0 0 0 0 0 0
Nghost:           7400 ave        7400 max        7400 min
Histogram: 1 0 0 0 0 0 0 0 0 0
Neighs:              0 ave           0 max           0 min
Histogram: 1 0 0 0 0 0 0 0 0 0
FullNghs:        42504 ave       42504 max       42504 min
Histogram: 1 0 0 0 0 0 0 0 0 0

Total # of neighbors = 42504
Ave neighs/atom = 122.13793
Neighbor list builds = 21
Dangerous builds = 0
unfix           3
min_style       fire
minimize        0.0 1.0e-8 2000 4000
Switching to 'neigh_modify every 1 delay 0 check yes' setting during minimization
  Parameters for fire:
    dmax  delaystep dtgrow dtshrink alpha0 alphashrink tmax tmin   integrator   halfstepback   abcfire  
     0.1     20      1.1     0.5     0.25     0.99      10  0.02 eulerimplicit      yes          no     
Per MPI rank memory allocation (min/avg/max) = 4.526 | 4.526 | 4.526 Mbytes
   Step          Time           Temp          Fnorm          PotEng         KinEng           Lx             Ly             Lz            Pxx            Pyy            Pzz            Pxy            Pxz            Pyz      
      1395   1.395          0              9.7916866e-05 -3493.9203      0              4.8541311      4.2038008      236.23007     -3721.6777     -3721.6777      0.02652281     9.0165176e-06  1.2675308e-10  8.9762216e-10
      1400   1.4            2.1213627e-10  9.5970739e-05 -3493.9203      9.5150055e-12  4.8541311      4.2038008      236.23007     -3721.6779     -3721.6779      0.026575215    9.0165257e-06  1.1369035e-10  8.9431034e-10
      1410   1.41           1.8474281e-09  8.3356956e-05 -3493.9203      8.286319e-11   4.8541311      4.2038008      236.23007     -3721.68       -3721.68        0.026847468    9.0169023e-06  1.9930016e-12  7.7472055e-10
      1420   2.079022       4.5863757e-09  6.1945619e-05 -3493.9203      2.0571395e-10  4.8541311      4.2038008      236.23007     -3721.6845     -3721.6845      0.027661546    9.0176568e-06 -1.0534972e-10  6.2326266e-10
      1430   5.4304226      9.4632101e-09  2.9219188e-05 -3493.9203      4.2445592e-10  4.8541311      4.2038008      236.23007     -3721.6983     -3721.6983      0.033918433    9.0217845e-06  2.1625441e-11  1.3505996e-11
      1440   14.183615      7.5075919e-09  8.479895e-06  -3493.9203      3.3674005e-10  4.8541311      4.2038008      236.23007     -3721.7027     -3721.7027      0.042360891    9.0303168e-06 -2.1070193e-11  1.1374402e-11
      1450   14.5           2.2246545e-09  4.6243143e-06 -3493.9203      9.9783028e-11  4.8541311      4.2038008      236.23007     -3721.7036     -3721.7036      0.045927949    9.0280001e-06  4.3653267e-11  8.6605377e-11
      1460   14.6           2.0124021e-09  2.7252713e-06 -3493.9203      9.0262814e-11  4.8541311      4.2038008      236.23007     -3721.7032     -3721.7032      0.043303959    9.0280269e-06 -4.0369102e-11 -1.5838601e-10
      1470   14.7           2.2793535e-09  1.5624781e-06 -3493.9203      1.0223646e-10  4.8541311      4.2038008      236.23007     -3721.7033     -3721.7033      0.041772388    9.0281575e-06 -1.6483433e-10  8.4432914e-11
      1480   14.8           1.4868409e-09  1.308951e-06  -3493.9203      6.6689676e-11  4.8541311      4.2038008      236.23007     -3721.7032     -3721.7032      0.039203326    9.0281379e-06 -4.9815635e-11 -9.7509552e-12
      1490   14.9           2.7950205e-10  5.711217e-07  -3493.9203      1.2536581e-11  4.8541311      4.2038008      236.23007     -3721.7033     -3721.7033      0.037861357    9.0281072e-06  1.0568295e-10 -3.3629233e-10
      1500   7.5            3.7196892e-14  1.0821913e-07 -3493.9203      1.6684023e-15  4.8541311      4.2038008      236.23007     -3721.7032     -3721.7032      0.037951151    9.0279224e-06 -6.9815672e-11  2.1171638e-12
      1510   7.55           5.2546727e-14  4.5445057e-08 -3493.9203      2.3568926e-15  4.8541311      4.2038008      236.23007     -3721.7032     -3721.7032      0.037950467    9.0278249e-06  1.5940999e-11  1.1010175e-11
      1520   15.2           6.5661661e-14  2.2477598e-08 -3493.9203      2.9451402e-15  4.8541311      4.2038008      236.23007     -3721.7032     -3721.7032      0.037966199    9.0277401e-06  7.8819384e-11 -7.0941137e-12
      1530   15.3           8.5676192e-14  1.5693912e-08 -3493.9203      3.8428574e-15  4.8541311      4.2038008      236.23007     -3721.7032     -3721.7032      0.037955178    9.0279027e-06 -2.324729e-11   3.9114489e-11
      1540   15.4           8.2954874e-14  1.1959304e-08 -3493.9203      3.7207974e-15  4.8541311      4.2038008      236.23007     -3721.7032     -3721.7032      0.03794428     9.0276643e-06  3.4206727e-11  5.4428179e-11
      1541   15.41          7.7717416e-14  9.8838212e-09 -3493.9203      3.4858803e-15  4.8541311      4.2038008      236.23007     -3721.7032     -3721.7032      0.037940725    9.0276953e-06  3.9188289e-11 -2.7453942e-11
Loop time of 1.05822 on 2 procs for 146 steps with 348 atoms

103.5% CPU use with 1 MPI tasks x 2 OpenMP threads

Minimization stats:
  Stopping criterion = force tolerance
  Energy initial, next-to-last, final = 
     -3493.92026892558  -3493.92026892641   -3493.9202689264
  Force two-norm initial, final = 9.7916866e-05 9.8838212e-09
  Force max component initial, final = 1.7097047e-05 1.3835447e-09
  Final line search alpha, max atom move = 0 0
  Iterations, force evaluations = 146 148

MPI task timing breakdown:
Section |  min time  |  avg time  |  max time  |%varavg| %total
---------------------------------------------------------------
Pair    | 1.0528     | 1.0528     | 1.0528     |   0.0 | 99.49
Neigh   | 0          | 0          | 0          |   0.0 |  0.00
Comm    | 0.0038514  | 0.0038514  | 0.0038514  |   0.0 |  0.36
Output  | 0.0002475  | 0.0002475  | 0.0002475  |   0.0 |  0.02
Modify  | 0          | 0          | 0          |   0.0 |  0.00
Other   |            | 0.001322   |            |       |  0.12

Nlocal:            348 ave         348 max         348 min
Histogram: 1 0 0 0 0 0 0 0 0 0
Nghost:           7400 ave        7400 max        7400 min
Histogram: 1 0 0 0 0 0 0 0 0 0
Neighs:              0 ave           0 max           0 min
Histogram: 1 0 0 0 0 0 0 0 0 0
FullNghs:        42816 ave       42816 max       42816 min
Histogram: 1 0 0 0 0 0 0 0 0 0

Total # of neighbors = 42816
Ave neighs/atom = 123.03448
Neighbor list builds = 0
Dangerous builds = 0

fix             3 all box/relax z 0.0 vmax 0.001
min_style       cg
minimize        0.0 1.0e-8 1000 2000
Switching to 'neigh_modify every 1 delay 0 check yes' setting during minimization
WARNING: Energy due to 3 extra global DOFs will be included in minimizer energies
 (src/min.cpp:219)
Per MPI rank memory allocation (min/avg/max) = 5.651 | 5.651 | 5.651 Mbytes
   Step          Time           Temp          Fnorm          PotEng         KinEng           Lx             Ly             Lz            Pxx            Pyy            Pzz            Pxy            Pxz            Pyz      
      1541   1.541          7.7717416e-14  9.8840749e-09 -3493.9203      3.4858803e-15  4.8541311      4.2038008      236.23007     -3721.7032     -3721.7032      0.037940724    9.0277581e-06  9.2989163e-12  1.4930849e-11
      1550   1.55           7.7717416e-14  4.8488768e-08 -3493.9203      3.4858803e-15  4.8541311      4.2038008      236.23007     -3721.7206     -3721.7206     -1.993688e-07   9.0277862e-06 -1.5173469e-10  9.0913509e-11
      1560   1.56           7.7717416e-14  1.4515085e-08 -3493.9203      3.4858803e-15  4.8541311      4.2038008      236.23007     -3721.7206     -3721.7206     -1.3286975e-07  9.0279314e-06 -3.0136606e-10  7.4483579e-11
      1562   1.562          7.7717416e-14  9.5889621e-09 -3493.9203      3.4858803e-15  4.8541311      4.2038008      236.23007     -3721.7206     -3721.7206     -7.586931e-08   9.0276896e-06  6.7675444e-11 -1.0609805e-10
Loop time of 0.299681 on 2 procs for 21 steps with 348 atoms

104.0% CPU use with 1 MPI tasks x 2 OpenMP threads

Minimization stats:
  Stopping criterion = force tolerance
  Energy initial, next-to-last, final = 
      -3493.9202689264  -3493.92026892641   -3493.9202689264
  Force two-norm initial, final = 0.00011415214 9.5916788e-09
  Force max component initial, final = 0.00011415214 1.449215e-09
  Final line search alpha, max atom move = 1 1.449215e-09
  Iterations, force evaluations = 21 42

MPI task timing breakdown:
Section |  min time  |  avg time  |  max time  |%varavg| %total
---------------------------------------------------------------
Pair    | 0.29597    | 0.29597    | 0.29597    |   0.0 | 98.76
Neigh   | 0          | 0          | 0          |   0.0 |  0.00
Comm    | 0.00094449 | 0.00094449 | 0.00094449 |   0.0 |  0.32
Output  | 2.9212e-05 | 2.9212e-05 | 2.9212e-05 |   0.0 |  0.01
Modify  | 0          | 0          | 0          |   0.0 |  0.00
Other   |            | 0.002741   |            |       |  0.91

Nlocal:            348 ave         348 max         348 min
Histogram: 1 0 0 0 0 0 0 0 0 0
Nghost:           7400 ave        7400 max        7400 min
Histogram: 1 0 0 0 0 0 0 0 0 0
Neighs:              0 ave           0 max           0 min
Histogram: 1 0 0 0 0 0 0 0 0 0
FullNghs:        42816 ave       42816 max       42816 min
Histogram: 1 0 0 0 0 0 0 0 0 0

Total # of neighbors = 42816
Ave neighs/atom = 123.03448
Neighbor list builds = 0
Dangerous builds = 0
unfix           3
min_style       fire
minimize        0.0 1.0e-8 2000 4000
Switching to 'neigh_modify every 1 delay 0 check yes' setting during minimization
  Parameters for fire:
    dmax  delaystep dtgrow dtshrink alpha0 alphashrink tmax tmin   integrator   halfstepback   abcfire  
     0.1     20      1.1     0.5     0.25     0.99      10  0.02 eulerimplicit      yes          no     
Per MPI rank memory allocation (min/avg/max) = 4.526 | 4.526 | 4.526 Mbytes
   Step          Time           Temp          Fnorm          PotEng         KinEng           Lx             Ly             Lz            Pxx            Pyy            Pzz            Pxy            Pxz            Pyz      
      1562   1.562          0              9.5891878e-09 -3493.9203      0              4.8541311      4.2038008      236.23007     -3721.7206     -3721.7206     -7.6082992e-08  9.027612e-06   1.0070136e-10 -1.9371819e-10
      1563   1.563          1.2958137e-19  9.5783598e-09 -3493.9203      5.8121482e-21  4.8541311      4.2038008      236.23007     -3721.7206     -3721.7206     -7.5584836e-08  9.0275993e-06  5.2214151e-11 -1.7276795e-10
Loop time of 0.0218548 on 2 procs for 1 steps with 348 atoms

104.6% CPU use with 1 MPI tasks x 2 OpenMP threads

Minimization stats:
  Stopping criterion = force tolerance
  Energy initial, next-to-last, final = 
      -3493.9202689264   -3493.9202689264  -3493.92026892641
  Force two-norm initial, final = 9.5891878e-09 9.5783598e-09
  Force max component initial, final = 1.4499679e-09 1.4454147e-09
  Final line search alpha, max atom move = 0 0
  Iterations, force evaluations = 1 2

MPI task timing breakdown:
Section |  min time  |  avg time  |  max time  |%varavg| %total
---------------------------------------------------------------
Pair    | 0.021757   | 0.021757   | 0.021757   |   0.0 | 99.55
Neigh   | 0          | 0          | 0          |   0.0 |  0.00
Comm    | 6.2924e-05 | 6.2924e-05 | 6.2924e-05 |   0.0 |  0.29
Output  | 0          | 0          | 0          |   0.0 |  0.00
Modify  | 0          | 0          | 0          |   0.0 |  0.00
Other   |            | 3.442e-05  |            |       |  0.16

Nlocal:            348 ave         348 max         348 min
Histogram: 1 0 0 0 0 0 0 0 0 0
Nghost:           7400 ave        7400 max        7400 min
Histogram: 1 0 0 0 0 0 0 0 0 0
Neighs:              0 ave           0 max           0 min
Histogram: 1 0 0 0 0 0 0 0 0 0
FullNghs:        42816 ave       42816 max       42816 min
Histogram: 1 0 0 0 0 0 0 0 0 0

Total # of neighbors = 42816
Ave neighs/atom = 123.03448
Neighbor list builds = 0
Dangerous builds = 0

fix             3 all box/relax z 0.0 vmax 0.001
min_style       cg
minimize        0.0 1.0e-8 1000 2000
Switching to 'neigh_modify every 1 delay 0 check yes' setting during minimization
WARNING: Energy due to 3 extra global DOFs will be included in minimizer energies
 (src/min.cpp:219)
Per MPI rank memory allocation (min/avg/max) = 5.651 | 5.651 | 5.651 Mbytes
   Step          Time           Temp          Fnorm          PotEng         KinEng           Lx             Ly             Lz            Pxx            Pyy            Pzz            Pxy            Pxz            Pyz      
      1563   1.563          1.2958137e-19  9.5785688e-09 -3493.9203      5.8121482e-21  4.8541311      4.2038008      236.23007     -3721.7206     -3721.7206     -7.5866756e-08  9.0276881e-06  2.3874598e-11 -2.1959464e-10
      1565   1.565          1.2958137e-19  9.7272057e-09 -3493.9203      5.8121482e-21  4.8541311      4.2038008      236.23007     -3721.7206     -3721.7206     -1.3677215e-07  9.027666e-06  -6.6310127e-11 -1.6042475e-11
Loop time of 0.0353437 on 2 procs for 2 steps with 348 atoms

99.4% CPU use with 1 MPI tasks x 2 OpenMP threads

Minimization stats:
  Stopping criterion = force tolerance
  Energy initial, next-to-last, final = 
     -3493.92026892641  -3493.92026892641  -3493.92026892641
  Force two-norm initial, final = 9.5812881e-09 9.7359061e-09
  Force max component initial, final = 1.4456089e-09 2.1436968e-09
  Final line search alpha, max atom move = 1 2.1436968e-09
  Iterations, force evaluations = 2 4

MPI task timing breakdown:
Section |  min time  |  avg time  |  max time  |%varavg| %total
---------------------------------------------------------------
Pair    | 0.034971   | 0.034971   | 0.034971   |   0.0 | 98.95
Neigh   | 0          | 0          | 0          |   0.0 |  0.00
Comm    | 9.6322e-05 | 9.6322e-05 | 9.6322e-05 |   0.0 |  0.27
Output  | 0          | 0          | 0          |   0.0 |  0.00
Modify  | 0          | 0          | 0          |   0.0 |  0.00
Other   |            | 0.0002761  |            |       |  0.78

Nlocal:            348 ave         348 max         348 min
Histogram: 1 0 0 0 0 0 0 0 0 0
Nghost:           7400 ave        7400 max        7400 min
Histogram: 1 0 0 0 0 0 0 0 0 0
Neighs:              0 ave           0 max           0 min
Histogram: 1 0 0 0 0 0 0 0 0 0
FullNghs:        42816 ave       42816 max       42816 min
Histogram: 1 0 0 0 0 0 0 0 0 0

Total # of neighbors = 42816
Ave neighs/atom = 123.03448
Neighbor list builds = 0
Dangerous builds = 0
unfix           3
min_style       fire
minimize        0.0 1.0e-8 2000 4000
Switching to 'neigh_modify every 1 delay 0 check yes' setting during minimization
  Parameters for fire:
    dmax  delaystep dtgrow dtshrink alpha0 alphashrink tmax tmin   integrator   halfstepback   abcfire  
     0.1     20      1.1     0.5     0.25     0.99      10  0.02 eulerimplicit      yes          no     
Per MPI rank memory allocation (min/avg/max) = 4.526 | 4.526 | 4.526 Mbytes
   Step          Time           Temp          Fnorm          PotEng         KinEng           Lx             Ly             Lz            Pxx            Pyy            Pzz            Pxy            Pxz            Pyz      
      1565   1.565          0              9.7274526e-09 -3493.9203      0              4.8541311      4.2038008      236.23007     -3721.7206     -3721.7206     -1.3701377e-07  9.0278539e-06 -1.8155026e-10  2.1536031e-11
      1566   1.566          1.0526381e-19  9.7139312e-09 -3493.9203      4.7214261e-21  4.8541311      4.2038008      236.23007     -3721.7206     -3721.7206     -1.3680491e-07  9.0278231e-06 -1.8088606e-10 -9.4511304e-12
Loop time of 0.0211441 on 2 procs for 1 steps with 348 atoms

100.2% CPU use with 1 MPI tasks x 2 OpenMP threads

Minimization stats:
  Stopping criterion = force tolerance
  Energy initial, next-to-last, final = 
     -3493.92026892641  -3493.92026892641  -3493.92026892641
  Force two-norm initial, final = 9.7274526e-09 9.7139312e-09
  Force max component initial, final = 2.1436408e-09 2.1410406e-09
  Final line search alpha, max atom move = 0 0
  Iterations, force evaluations = 1 2

MPI task timing breakdown:
Section |  min time  |  avg time  |  max time  |%varavg| %total
---------------------------------------------------------------
Pair    | 0.021047   | 0.021047   | 0.021047   |   0.0 | 99.54
Neigh   | 0          | 0          | 0          |   0.0 |  0.00
Comm    | 6.1378e-05 | 6.1378e-05 | 6.1378e-05 |   0.0 |  0.29
Output  | 0          | 0          | 0          |   0.0 |  0.00
Modify  | 0          | 0          | 0          |   0.0 |  0.00
Other   |            | 3.554e-05  |            |       |  0.17

Nlocal:            348 ave         348 max         348 min
Histogram: 1 0 0 0 0 0 0 0 0 0
Nghost:           7400 ave        7400 max        7400 min
Histogram: 1 0 0 0 0 0 0 0 0 0
Neighs:              0 ave           0 max           0 min
Histogram: 1 0 0 0 0 0 0 0 0 0
FullNghs:        42816 ave       42816 max       42816 min
Histogram: 1 0 0 0 0 0 0 0 0 0

Total # of neighbors = 42816
Ave neighs/atom = 123.03448
Neighbor list builds = 0
Dangerous builds = 0

fix             3 all box/relax z 0.0 vmax 0.001
min_style       cg
minimize        0.0 1.0e-8 1000 2000
Switching to 'neigh_modify every 1 delay 0 check yes' setting during minimization
WARNING: Energy due to 3 extra global DOFs will be included in minimizer energies
 (src/min.cpp:219)
Per MPI rank memory allocation (min/avg/max) = 5.651 | 5.651 | 5.651 Mbytes
   Step          Time           Temp          Fnorm          PotEng         KinEng           Lx             Ly             Lz            Pxx            Pyy            Pzz            Pxy            Pxz            Pyz      
      1566   1.566          1.0526381e-19  9.7143737e-09 -3493.9203      4.7214261e-21  4.8541311      4.2038008      236.23007     -3721.7206     -3721.7206     -1.3702528e-07  9.0277576e-06 -2.647239e-10  -4.3334978e-11
      1568   1.568          1.0526381e-19  6.8698235e-09 -3493.9203      4.7214261e-21  4.8541311      4.2038008      236.23007     -3721.7206     -3721.7206     -7.0131981e-08  9.0278416e-06 -1.7011112e-10  2.6992687e-11
Loop time of 0.0358274 on 2 procs for 2 steps with 348 atoms

101.2% CPU use with 1 MPI tasks x 2 OpenMP threads

Minimization stats:
  Stopping criterion = force tolerance
  Energy initial, next-to-last, final = 
      -3493.9202689264  -3493.92026892641   -3493.9202689264
  Force two-norm initial, final = 9.7231178e-09 6.8730633e-09
  Force max component initial, final = 2.1410567e-09 1.3061748e-09
  Final line search alpha, max atom move = 1 1.3061748e-09
  Iterations, force evaluations = 2 4

MPI task timing breakdown:
Section |  min time  |  avg time  |  max time  |%varavg| %total
---------------------------------------------------------------
Pair    | 0.035362   | 0.035362   | 0.035362   |   0.0 | 98.70
Neigh   | 0          | 0          | 0          |   0.0 |  0.00
Comm    | 0.00014989 | 0.00014989 | 0.00014989 |   0.0 |  0.42
Output  | 0          | 0          | 0          |   0.0 |  0.00
Modify  | 0          | 0          | 0          |   0.0 |  0.00
Other   |            | 0.000316   |            |       |  0.88

Nlocal:            348 ave         348 max         348 min
Histogram: 1 0 0 0 0 0 0 0 0 0
Nghost:           7400 ave        7400 max        7400 min
Histogram: 1 0 0 0 0 0 0 0 0 0
Neighs:              0 ave           0 max           0 min
Histogram: 1 0 0 0 0 0 0 0 0 0
FullNghs:        42816 ave       42816 max       42816 min
Histogram: 1 0 0 0 0 0 0 0 0 0

Total # of neighbors = 42816
Ave neighs/atom = 123.03448
Neighbor list builds = 0
Dangerous builds = 0
unfix           3
min_style       fire
minimize        0.0 1.0e-8 2000 4000
Switching to 'neigh_modify every 1 delay 0 check yes' setting during minimization
  Parameters for fire:
    dmax  delaystep dtgrow dtshrink alpha0 alphashrink tmax tmin   integrator   halfstepback   abcfire  
     0.1     20      1.1     0.5     0.25     0.99      10  0.02 eulerimplicit      yes          no     
Per MPI rank memory allocation (min/avg/max) = 4.526 | 4.526 | 4.526 Mbytes
   Step          Time           Temp          Fnorm          PotEng         KinEng           Lx             Ly             Lz            Pxx            Pyy            Pzz            Pxy            Pxz            Pyz      
      1568   1.568          0              6.870184e-09  -3493.9203      0              4.8541311      4.2038008      236.23007     -3721.7206     -3721.7206     -7.030807e-08   9.027859e-06  -2.1885663e-10 -3.1107088e-11
      1569   1.569          4.9961335e-20  6.864765e-09  -3493.9203      2.2409293e-21  4.8541311      4.2038008      236.23007     -3721.7206     -3721.7206     -7.031796e-08   9.0278521e-06 -2.2162416e-10  2.5078475e-11
Loop time of 0.0213839 on 2 procs for 1 steps with 348 atoms

104.5% CPU use with 1 MPI tasks x 2 OpenMP threads

Minimization stats:
  Stopping criterion = force tolerance
  Energy initial, next-to-last, final = 
      -3493.9202689264   -3493.9202689264   -3493.9202689264
  Force two-norm initial, final = 6.870184e-09 6.864765e-09
  Force max component initial, final = 1.3061841e-09 1.3043573e-09
  Final line search alpha, max atom move = 0 0
  Iterations, force evaluations = 1 2

MPI task timing breakdown:
Section |  min time  |  avg time  |  max time  |%varavg| %total
---------------------------------------------------------------
Pair    | 0.021286   | 0.021286   | 0.021286   |   0.0 | 99.54
Neigh   | 0          | 0          | 0          |   0.0 |  0.00
Comm    | 6.353e-05  | 6.353e-05  | 6.353e-05  |   0.0 |  0.30
Output  | 0          | 0          | 0          |   0.0 |  0.00
Modify  | 0          | 0          | 0          |   0.0 |  0.00
Other   |            | 3.449e-05  |            |       |  0.16

Nlocal:            348 ave         348 max         348 min
Histogram: 1 0 0 0 0 0 0 0 0 0
Nghost:           7400 ave        7400 max        7400 min
Histogram: 1 0 0 0 0 0 0 0 0 0
Neighs:              0 ave           0 max           0 min
Histogram: 1 0 0 0 0 0 0 0 0 0
FullNghs:        42816 ave       42816 max       42816 min
Histogram: 1 0 0 0 0 0 0 0 0 0

Total # of neighbors = 42816
Ave neighs/atom = 123.03448
Neighbor list builds = 0
Dangerous builds = 0

fix             3 all box/relax z 0.0 vmax 0.001
min_style       cg
minimize        0.0 1.0e-8 1000 2000
Switching to 'neigh_modify every 1 delay 0 check yes' setting during minimization
WARNING: Energy due to 3 extra global DOFs will be included in minimizer energies
 (src/min.cpp:219)
Per MPI rank memory allocation (min/avg/max) = 5.651 | 5.651 | 5.651 Mbytes
   Step          Time           Temp          Fnorm          PotEng         KinEng           Lx             Ly             Lz            Pxx            Pyy            Pzz            Pxy            Pxz            Pyz      
      1569   1.569          4.9961335e-20  6.8648778e-09 -3493.9203      2.2409293e-21  4.8541311      4.2038008      236.23007     -3721.7206     -3721.7206     -7.0134048e-08  9.0279726e-06 -3.2361704e-10  7.2481729e-11
      1570   1.57           4.9961335e-20  5.2038771e-09 -3493.9203      2.2409293e-21  4.8541311      4.2038008      236.23007     -3721.7206     -3721.7206      3.0361663e-05  9.0278175e-06 -2.1011122e-10  6.1010298e-11
      1571   1.571          4.9961335e-20  7.3768622e-09 -3493.9203      2.2409293e-21  4.8541311      4.2038008      236.23007     -3721.7206     -3721.7206     -1.1844339e-07  9.0278196e-06 -1.3239885e-10  6.0336865e-11
Loop time of 0.0351836 on 2 procs for 2 steps with 348 atoms

104.5% CPU use with 1 MPI tasks x 2 OpenMP threads

Minimization stats:
  Stopping criterion = force tolerance
  Energy initial, next-to-last, final = 
      -3493.9202689264   -3493.9202689264  -3493.92026892641
  Force two-norm initial, final = 6.8681201e-09 7.3854647e-09
  Force max component initial, final = 1.304378e-09 1.7286804e-09
  Final line search alpha, max atom move = 1 1.7286804e-09
  Iterations, force evaluations = 2 4

MPI task timing breakdown:
Section |  min time  |  avg time  |  max time  |%varavg| %total
---------------------------------------------------------------
Pair    | 0.034795   | 0.034795   | 0.034795   |   0.0 | 98.90
Neigh   | 0          | 0          | 0          |   0.0 |  0.00
Comm    | 9.8057e-05 | 9.8057e-05 | 9.8057e-05 |   0.0 |  0.28
Output  | 1.4986e-05 | 1.4986e-05 | 1.4986e-05 |   0.0 |  0.04
Modify  | 0          | 0          | 0          |   0.0 |  0.00
Other   |            | 0.0002752  |            |       |  0.78

Nlocal:            348 ave         348 max         348 min
Histogram: 1 0 0 0 0 0 0 0 0 0
Nghost:           7400 ave        7400 max        7400 min
Histogram: 1 0 0 0 0 0 0 0 0 0
Neighs:              0 ave           0 max           0 min
Histogram: 1 0 0 0 0 0 0 0 0 0
FullNghs:        42816 ave       42816 max       42816 min
Histogram: 1 0 0 0 0 0 0 0 0 0

Total # of neighbors = 42816
Ave neighs/atom = 123.03448
Neighbor list builds = 0
Dangerous builds = 0
unfix           3
min_style       fire
minimize        0.0 1.0e-8 2000 4000
Switching to 'neigh_modify every 1 delay 0 check yes' setting during minimization
  Parameters for fire:
    dmax  delaystep dtgrow dtshrink alpha0 alphashrink tmax tmin   integrator   halfstepback   abcfire  
     0.1     20      1.1     0.5     0.25     0.99      10  0.02 eulerimplicit      yes          no     
Per MPI rank memory allocation (min/avg/max) = 4.526 | 4.526 | 4.526 Mbytes
   Step          Time           Temp          Fnorm          PotEng         KinEng           Lx             Ly             Lz            Pxx            Pyy            Pzz            Pxy            Pxz            Pyz      
      1571   1.571          0              7.3774597e-09 -3493.9203      0              4.8541311      4.2038008      236.23007     -3721.7206     -3721.7206     -1.1868384e-07  9.0281022e-06 -3.3963184e-10  1.1653627e-10
      1572   1.572          5.0328743e-20  7.3702517e-09 -3493.9203      2.2574087e-21  4.8541311      4.2038008      236.23007     -3721.7206     -3721.7206     -1.1836546e-07  9.0280815e-06 -3.3941043e-10  6.6402378e-11
Loop time of 0.0258626 on 2 procs for 1 steps with 348 atoms

72.4% CPU use with 1 MPI tasks x 2 OpenMP threads

Minimization stats:
  Stopping criterion = force tolerance
  Energy initial, next-to-last, final = 
     -3493.92026892641  -3493.92026892641  -3493.92026892641
  Force two-norm initial, final = 7.3774597e-09 7.3702517e-09
  Force max component initial, final = 1.7286863e-09 1.7264469e-09
  Final line search alpha, max atom move = 0 0
  Iterations, force evaluations = 1 2

MPI task timing breakdown:
Section |  min time  |  avg time  |  max time  |%varavg| %total
---------------------------------------------------------------
Pair    | 0.025591   | 0.025591   | 0.025591   |   0.0 | 98.95
Neigh   | 0          | 0          | 0          |   0.0 |  0.00
Comm    | 0.00018346 | 0.00018346 | 0.00018346 |   0.0 |  0.71
Output  | 0          | 0          | 0          |   0.0 |  0.00
Modify  | 0          | 0          | 0          |   0.0 |  0.00
Other   |            | 8.853e-05  |            |       |  0.34

Nlocal:            348 ave         348 max         348 min
Histogram: 1 0 0 0 0 0 0 0 0 0
Nghost:           7400 ave        7400 max        7400 min
Histogram: 1 0 0 0 0 0 0 0 0 0
Neighs:              0 ave           0 max           0 min
Histogram: 1 0 0 0 0 0 0 0 0 0
FullNghs:        42816 ave       42816 max       42816 min
Histogram: 1 0 0 0 0 0 0 0 0 0

Total # of neighbors = 42816
Ave neighs/atom = 123.03448
Neighbor list builds = 0
Dangerous builds = 0

fix             3 all box/relax z 0.0 vmax 0.001
min_style       cg
minimize        0.0 1.0e-8 1000 2000
Switching to 'neigh_modify every 1 delay 0 check yes' setting during minimization
WARNING: Energy due to 3 extra global DOFs will be included in minimizer energies
 (src/min.cpp:219)
Per MPI rank memory allocation (min/avg/max) = 5.651 | 5.651 | 5.651 Mbytes
   Step          Time           Temp          Fnorm          PotEng         KinEng           Lx             Ly             Lz            Pxx            Pyy            Pzz            Pxy            Pxz            Pyz      
      1572   1.572          5.0328743e-20  7.3705799e-09 -3493.9203      2.2574087e-21  4.8541311      4.2038008      236.23007     -3721.7206     -3721.7206     -1.1828295e-07  9.0283087e-06 -5.4800873e-10  6.6319352e-11
      1574   1.574          5.0328743e-20  5.8801207e-09 -3493.9203      2.2574087e-21  4.8541311      4.2038008      236.23007     -3721.7206     -3721.7206     -6.0287086e-08  9.0281431e-06 -3.2763919e-10  1.125464e-10 
Loop time of 0.036621 on 2 procs for 2 steps with 348 atoms

99.2% CPU use with 1 MPI tasks x 2 OpenMP threads

Minimization stats:
  Stopping criterion = force tolerance
  Energy initial, next-to-last, final = 
     -3493.92026892641  -3493.92026892641   -3493.9202689264
  Force two-norm initial, final = 7.3791664e-09 5.8829177e-09
  Force max component initial, final = 1.7264811e-09 1.1636698e-09
  Final line search alpha, max atom move = 1 1.1636698e-09
  Iterations, force evaluations = 2 4

MPI task timing breakdown:
Section |  min time  |  avg time  |  max time  |%varavg| %total
---------------------------------------------------------------
Pair    | 0.036179   | 0.036179   | 0.036179   |   0.0 | 98.79
Neigh   | 0          | 0          | 0          |   0.0 |  0.00
Comm    | 0.00015197 | 0.00015197 | 0.00015197 |   0.0 |  0.41
Output  | 0          | 0          | 0          |   0.0 |  0.00
Modify  | 0          | 0          | 0          |   0.0 |  0.00
Other   |            | 0.0002902  |            |       |  0.79

Nlocal:            348 ave         348 max         348 min
Histogram: 1 0 0 0 0 0 0 0 0 0
Nghost:           7400 ave        7400 max        7400 min
Histogram: 1 0 0 0 0 0 0 0 0 0
Neighs:              0 ave           0 max           0 min
Histogram: 1 0 0 0 0 0 0 0 0 0
FullNghs:        42816 ave       42816 max       42816 min
Histogram: 1 0 0 0 0 0 0 0 0 0

Total # of neighbors = 42816
Ave neighs/atom = 123.03448
Neighbor list builds = 0
Dangerous builds = 0
unfix           3
min_style       fire
minimize        0.0 1.0e-8 2000 4000
Switching to 'neigh_modify every 1 delay 0 check yes' setting during minimization
  Parameters for fire:
    dmax  delaystep dtgrow dtshrink alpha0 alphashrink tmax tmin   integrator   halfstepback   abcfire  
     0.1     20      1.1     0.5     0.25     0.99      10  0.02 eulerimplicit      yes          no     
Per MPI rank memory allocation (min/avg/max) = 4.526 | 4.526 | 4.526 Mbytes
   Step          Time           Temp          Fnorm          PotEng         KinEng           Lx             Ly             Lz            Pxx            Pyy            Pzz            Pxy            Pxz            Pyz      
      1574   1.574          0              5.8803337e-09 -3493.9203      0              4.8541311      4.2038008      236.23007     -3721.7206     -3721.7206     -6.0193654e-08  9.028168e-06  -3.6383854e-10  1.0621797e-10
      1575   1.575          3.578535e-20   5.8760653e-09 -3493.9203      1.60509e-21    4.8541311      4.2038008      236.23007     -3721.7206     -3721.7206     -6.0332548e-08  9.0281629e-06 -3.531374e-10   1.0899473e-10
Loop time of 0.0210176 on 2 procs for 1 steps with 348 atoms

104.0% CPU use with 1 MPI tasks x 2 OpenMP threads

Minimization stats:
  Stopping criterion = force tolerance
  Energy initial, next-to-last, final = 
      -3493.9202689264   -3493.9202689264   -3493.9202689264
  Force two-norm initial, final = 5.8803337e-09 5.8760653e-09
  Force max component initial, final = 1.1636423e-09 1.1620575e-09
  Final line search alpha, max atom move = 0 0
  Iterations, force evaluations = 1 2

MPI task timing breakdown:
Section |  min time  |  avg time  |  max time  |%varavg| %total
---------------------------------------------------------------
Pair    | 0.020917   | 0.020917   | 0.020917   |   0.0 | 99.52
Neigh   | 0          | 0          | 0          |   0.0 |  0.00
Comm    | 6.2485e-05 | 6.2485e-05 | 6.2485e-05 |   0.0 |  0.30
Output  | 0          | 0          | 0          |   0.0 |  0.00
Modify  | 0          | 0          | 0          |   0.0 |  0.00
Other   |            | 3.836e-05  |            |       |  0.18

Nlocal:            348 ave         348 max         348 min
Histogram: 1 0 0 0 0 0 0 0 0 0
Nghost:           7400 ave        7400 max        7400 min
Histogram: 1 0 0 0 0 0 0 0 0 0
Neighs:              0 ave           0 max           0 min
Histogram: 1 0 0 0 0 0 0 0 0 0
FullNghs:        42816 ave       42816 max       42816 min
Histogram: 1 0 0 0 0 0 0 0 0 0

Total # of neighbors = 42816
Ave neighs/atom = 123.03448
Neighbor list builds = 0
Dangerous builds = 0


write_data      fire_cg_${name}.data
write_data      fire_cg_lmps.data
System init for write_data ...

write_data      bi_minimised.data
System init for write_data ...

print """- step: $(step)
  atoms: $(atoms)
  temp: $(temp)
  press: $(press)
  pe: $(pe)
  ke: $(ke)
  etotal: $(etotal)
  vol: $(vol)
  avecx: $(avecx)
  avecy: $(avecy)
  avecz: $(avecz)
  bvecx: $(bvecx)
  bvecy: $(bvecy)
  bvecz: $(bvecz)
  cvecx: $(cvecx)
  cvecy: $(cvecy)
  cvecz: $(cvecz)
  lx: $(lx)
  ly: $(ly)
  lz: $(lz)
  cella: $(cella)
  cellb: $(cellb)
  cellc: $(cellc)
  cellalpha: $(cellalpha)
  cellbeta: $(cellbeta)
  cellgamma: $(cellgamma)
  pxx: $(pxx)
  pyy: $(pyy)
  pzz: $(pzz)
  pxy: $(pxy)
  pyz: $(pyz)
  pxz: $(pxz)
  xlo: $(xlo)
  xhi: $(xhi)
  ylo: $(ylo)
  yhi: $(yhi)
  zlo: $(zlo)
  zhi: $(zhi)
  xy: $(xy)
  xz: $(xz)
  yz: $(yz)
""" file bi_minimised.data.yaml screen yes universe no
- step: 1575
  atoms: 348
  temp: 3.5785349877535107785e-20
  press: -2481.1470881432696842
  pe: -3493.9202689264038781
  ke: 1.6050899713739345401e-21
  etotal: -3493.9202689264038781
  vol: 4820.4635656218943041
  avecx: 4.8541310641848607332
  avecy: 0
  avecz: 0
  bvecx: -2.4270655321457348386
  bvecy: 4.2038008148832508581
  bvecz: 0
  cvecx: 0
  cvecy: 0
  cvecz: 236.23006873170069753
  lx: 4.8541310641848607332
  ly: 4.2038008148832508581
  lz: 236.23006873170069753
  cella: 4.8541310641848607332
  cellb: 4.8541310642114865459
  cellc: 236.23006873170069753
  cellalpha: 90
  cellbeta: 90
  cellgamma: 120.00000000054507154
  pxx: -3721.7206321898133865
  pyy: -3721.7206321796634256
  pzz: -6.0332547640666061443e-08
  pxy: 9.0281629043853960976e-06
  pyz: 1.0899473433569799963e-10
  pxz: -3.5313740417862645649e-10
  xlo: 0.00049104455757122676164
  xhi: 4.8546221087424319407
  ylo: 0.00042525705837334908024
  yhi: 4.2042260719416244541
  zlo: -8.9791504034502533926
  zhi: 227.25091832825043525
  xy: -2.4270655321457348386
  xz: 0
  yz: 0

[GRACE:debug, proc #0]: Data preparation timer: 1.35688e+06 mcs, graph execution time: 2.18213e+07 mcs, data preparation time fraction: 5.85 %
Total wall time: 0:00:37
