
thermo          10
thermo_style    custom step time temp fnorm pe ke lx ly lz pxx pyy pzz pxy pxz pyz

timestep        0.001

min_style       fire
minimize        0.0 1.0e-8 2000 4000

CITE-CITE-CITE-CITE-CITE-CITE-CITE-CITE-CITE-CITE-CITE-CITE-CITE

Your simulation uses code contributions which should be cited:

- Type Label Framework: https://doi.org/10.1021/acs.jpcb.3c08419

@Article{Gissinger24,
 author = {Jacob R. Gissinger, Ilia Nikiforov, Yaser Afshar, Brendon Waters, Moon-ki Choi, Daniel S. Karls, Alexander Stukowski, Wonpil Im, Hendrik Heinz, Axel Kohlmeyer, and Ellad B. Tadmor},
 title = {Type Label Framework for Bonded Force Fields in LAMMPS},
 journal = {J. Phys. Chem. B},
 year =    2024,
 volume =  128,
 number =  13,
 pages =   {3282–-3297}
}

CITE-CITE-CITE-CITE-CITE-CITE-CITE-CITE-CITE-CITE-CITE-CITE-CITE

Switching to 'neigh_modify every 1 delay 0 check yes' setting during minimization
Neighbor list info ...
  update: every = 1 steps, delay = 0 steps, check = yes
  max neighbors/atom: 2000, page size: 100000
  master list distance cutoff = 7.4
  ghost atom cutoff = 7.4
  binsize = 3.7, bins = 10 6 11
  1 neighbor lists, perpetual/occasional/extra = 1 0 0
  (1) pair grace, perpetual
      attributes: full, newton on
      pair build: full/bin/atomonly
      stencil: full/bin/3d
      bin: standard
  Parameters for fire:
    dmax  delaystep dtgrow dtshrink alpha0 alphashrink tmax tmin   integrator   halfstepback   abcfire  
     0.1     20      1.1     0.5     0.25     0.99      10  0.02 eulerimplicit      yes          no     
[GRACE] Atoms padding: new num. of atoms = 1515 (incl. 0.990% fake atoms)
[GRACE] Neighbours padding: extending new num. of neighbours = 96960 (incl. 0.990% fake neighbours)
Per MPI rank memory allocation (min/avg/max) = 3.765 | 3.765 | 3.765 Mbytes
   Step          Time           Temp          Fnorm          PotEng         KinEng           Lx             Ly             Lz            Pxx            Pyy            Pzz            Pxy            Pxz            Pyz      
         0   0              0              9.1998473     -14468.546      0              24.270655      21.019004      39.527659     -53249.749     -53249.744     -65641.244      0.0047946083  -9.791491e-12  -6.6158723e-12
        10   0.01           0.87719423     8.8738457     -14468.774      0.16996599     24.270655      21.019004      39.527659     -53513.284     -53513.279     -65580.104      0.0046561895  -3.5982158e-12 -9.9828839e-12
        20   0.02           3.1800243      8.0770733     -14469.333      0.61616456     24.270655      21.019004      39.527659     -54220.132     -54220.127     -65428.479      0.0042977401  -6.1801627e-12  9.3393138e-12
        30   0.070738431    8.2983013      6.0645074     -14470.583      1.6078868      24.270655      21.019004      39.527659     -56101.605     -56101.601     -64992.264      0.0033627548  -3.7068825e-12 -3.7420888e-12
        40   0.11119835     9.3069413e-05  0.16443268    -14472.292      1.8033219e-05  24.270655      21.019004      39.527659     -61589.092     -61589.091     -63775.687      0.00072952342  1.0841159e-11 -1.0959701e-12
        50   0.13899793     0.0041481377   0.028244337   -14472.293      0.00080374714  24.270655      21.019004      39.527659     -61613.158     -61613.157     -63791.783      0.00059401299 -3.0727794e-12 -1.1701026e-11
        60   0.08339876     9.4258386e-07  0.0089858158  -14472.293      1.8263595e-07  24.270655      21.019004      39.527659     -61641.387     -61641.386     -63780.055      0.00031337988 -2.280275e-12   3.7930937e-12
        70   0.097298553    7.6386996e-06  0.0065640847  -14472.293      1.4800817e-06  24.270655      21.019004      39.527659     -61640.494     -61640.494     -63780.005      0.00028889685  8.7333438e-13  1.3297865e-11
        80   0.1628055      1.6772442e-05  0.0031199376  -14472.293      3.2498444e-06  24.270655      21.019004      39.527659     -61638.387     -61638.386     -63780.404      0.0002305999  -4.2737281e-12 -7.1585713e-12
        90   0.16223618     7.7456943e-10  0.00039939377 -14472.293      1.5008131e-10  24.270655      21.019004      39.527659     -61635.487     -61635.487     -63781.516      9.5330309e-05 -2.4214093e-12  2.0332785e-12
       100   0.18026242     7.7202626e-09  0.00034248286 -14472.293      1.4958855e-09  24.270655      21.019004      39.527659     -61635.534     -61635.534     -63781.494      8.8867251e-05  5.4558879e-12 -5.2353552e-12
       110   0.26392221     1.897108e-08   0.00022910202 -14472.293      3.6758546e-09  24.270655      21.019004      39.527659     -61635.628     -61635.628     -63781.453      7.5409834e-05 -1.1097029e-11 -1.9847524e-12
       120   0.30858583     8.4120304e-14  4.9444667e-06 -14472.293      1.6299231e-14  24.270655      21.019004      39.527659     -61635.823     -61635.823     -63781.373      2.9185094e-05 -3.4931806e-12 -4.6134683e-12
       130   0.33430132     1.983767e-12   3.5143035e-06 -14472.293      3.8437659e-13  24.270655      21.019004      39.527659     -61635.822     -61635.822     -63781.374      2.4076631e-05 -8.4242106e-13  1.6072159e-11
       140   0.39601849     3.9164136e-12  1.1793328e-06 -14472.293      7.5884805e-13  24.270655      21.019004      39.527659     -61635.82      -61635.82      -63781.375      1.2257854e-05  3.8504375e-12  3.8813116e-12
       150   0.31061286     5.8966504e-16  1.8014665e-07 -14472.293      1.1425406e-16  24.270655      21.019004      39.527659     -61635.819     -61635.819     -63781.375     -2.4639446e-06 -8.4859589e-12 -7.8111399e-12
       160   0.33132038     3.3264244e-15  1.3442191e-07 -14472.293      6.4453117e-16  24.270655      21.019004      39.527659     -61635.819     -61635.819     -63781.375     -3.7518475e-06 -1.092501e-11  -8.5190382e-12
       170   0.56694446     6.4313546e-15  4.8102727e-08 -14472.293      1.2461454e-15  24.270655      21.019004      39.527659     -61635.819     -61635.819     -63781.375     -6.8527627e-06 -1.0003199e-11  4.2032842e-12
       173   0.7679196      6.6611589e-15  8.1088581e-09 -14472.293      1.2906725e-15  24.270655      21.019004      39.527659     -61635.819     -61635.819     -63781.375     -9.8544317e-06  2.4302304e-12 -4.24739e-12  
Loop time of 4.64411 on 1 procs for 173 steps with 1500 atoms

99.4% CPU use with 1 MPI tasks x 1 OpenMP threads

Minimization stats:
  Stopping criterion = force tolerance
  Energy initial, next-to-last, final = 
     -14468.5462806785  -14472.2931299627  -14472.2931299627
  Force two-norm initial, final = 9.1998473 8.1088581e-09
  Force max component initial, final = 0.39776157 2.4508059e-10
  Final line search alpha, max atom move = 0 0
  Iterations, force evaluations = 173 179

MPI task timing breakdown:
Section |  min time  |  avg time  |  max time  |%varavg| %total
---------------------------------------------------------------
Pair    | 4.6354     | 4.6354     | 4.6354     |   0.0 | 99.81
Neigh   | 0          | 0          | 0          |   0.0 |  0.00
Comm    | 0.0038852  | 0.0038852  | 0.0038852  |   0.0 |  0.08
Output  | 0.00055104 | 0.00055104 | 0.00055104 |   0.0 |  0.01
Modify  | 0          | 0          | 0          |   0.0 |  0.00
Other   |            | 0.004274   |            |       |  0.09

Nlocal:           1500 ave        1500 max        1500 min
Histogram: 1 0 0 0 0 0 0 0 0 0
Nghost:           4350 ave        4350 max        4350 min
Histogram: 1 0 0 0 0 0 0 0 0 0
Neighs:              0 ave           0 max           0 min
Histogram: 1 0 0 0 0 0 0 0 0 0
FullNghs:       184500 ave      184500 max      184500 min
Histogram: 1 0 0 0 0 0 0 0 0 0

Total # of neighbors = 184500
Ave neighs/atom = 123
Neighbor list builds = 0
Dangerous builds = 0

#write_data      fire_${name}.data

fix             3 all box/relax z 0.0 vmax 0.001
min_style       cg
minimize        0.0 1.0e-8 1000 2000
Switching to 'neigh_modify every 1 delay 0 check yes' setting during minimization
WARNING: Energy due to 3 extra global DOFs will be included in minimizer energies
 (src/min.cpp:219)
Per MPI rank memory allocation (min/avg/max) = 4.89 | 4.89 | 4.89 Mbytes
   Step          Time           Temp          Fnorm          PotEng         KinEng           Lx             Ly             Lz            Pxx            Pyy            Pzz            Pxy            Pxz            Pyz      
       173   0.173          6.6611589e-15  8.1088917e-09 -14472.293      1.2906725e-15  24.270655      21.019004      39.527659     -61635.819     -61635.819     -63781.375     -9.8544515e-06  7.4715251e-12 -9.3107376e-12
       180   0.18           6.6611589e-15  0.49306286    -14476.948      1.2906725e-15  24.270655      21.019004      39.250966     -53444.62      -53444.62      -41711.417     -1.0165379e-05  2.2954567e-11  4.241798e-12 
[GRACE] Neighbours padding: extending new num. of neighbours = 99990 (incl. 0.990% fake neighbours)
       190   0.19           6.6611589e-15  1.2157401     -14480.119      1.2906725e-15  24.270655      21.019004      38.855689     -40865.164     -40865.164     -8304.5073     -1.0679601e-05 -3.0331161e-11 -7.1116701e-11
       200   0.2            6.6611589e-15  0.001658982   -14480.296      1.2906725e-15  24.270655      21.019004      38.757107     -36873.091     -36873.091     -0.0083665964  -1.3978773e-05  9.7648465e-11  2.148824e-11 
       210   0.21           6.6611589e-15  0.00023450978 -14480.296      1.2906725e-15  24.270655      21.019004      38.757103     -36873.033     -36873.033     -0.037981659   -1.4440792e-05 -3.4186862e-12 -1.204772e-10 
       220   0.22           6.6611589e-15  0.00026234476 -14480.296      1.2906725e-15  24.270655      21.019004      38.757103     -36873.098     -36873.098     -0.045998873   -1.4679403e-05 -5.7811783e-11 -2.1636685e-11
       230   0.23           6.6611589e-15  0.00025428307 -14480.296      1.2906725e-15  24.270655      21.019004      38.757104     -36873.209     -36873.209     -0.0523421     -1.5074742e-05 -5.3637386e-11  1.4266267e-11
       240   0.24           6.6611589e-15  0.00020379507 -14480.296      1.2906725e-15  24.270655      21.019004      38.757104     -36873.312     -36873.312     -0.052436747   -1.5513065e-05 -1.121329e-10  -3.775399e-11 
       250   0.25           6.6611589e-15  0.00017354722 -14480.296      1.2906725e-15  24.270655      21.019004      38.757105     -36873.361     -36873.361     -0.054744315   -1.5927774e-05 -4.6889978e-11 -2.9519904e-11
       260   0.26           6.6611589e-15  0.00019862726 -14480.296      1.2906725e-15  24.270655      21.019004      38.757105     -36873.321     -36873.321     -0.089420112   -1.6548744e-05  7.8629778e-12 -2.562665e-11 
       270   0.27           6.6611589e-15  2.7674982e-06 -14480.296      1.2906725e-15  24.270655      21.019004      38.757104     -36873.189     -36873.189      0.0017636248  -1.6865263e-05 -3.6328039e-11  2.5833572e-11
       277   0.277          6.6611589e-15  8.2939295e-09 -14480.296      1.2906725e-15  24.270655      21.019004      38.757104     -36873.191     -36873.191     -2.2883694e-08 -1.659612e-05  -9.8961968e-12  1.1315401e-10
Loop time of 7.88488 on 1 procs for 104 steps with 1500 atoms

97.3% CPU use with 1 MPI tasks x 1 OpenMP threads

Minimization stats:
  Stopping criterion = force tolerance
  Energy initial, next-to-last, final = 
     -14472.2931299627    -14480.29616997  -14480.2961699703
  Force two-norm initial, final = 802.7462 8.2989288e-09
  Force max component initial, final = 802.7462 2.8801446e-10
  Final line search alpha, max atom move = 1 2.8801446e-10
  Iterations, force evaluations = 104 189

MPI task timing breakdown:
Section |  min time  |  avg time  |  max time  |%varavg| %total
---------------------------------------------------------------
Pair    | 7.8631     | 7.8631     | 7.8631     |   0.0 | 99.72
Neigh   | 0.0042242  | 0.0042242  | 0.0042242  |   0.0 |  0.05
Comm    | 0.0031998  | 0.0031998  | 0.0031998  |   0.0 |  0.04
Output  | 0.00030846 | 0.00030846 | 0.00030846 |   0.0 |  0.00
Modify  | 0          | 0          | 0          |   0.0 |  0.00
Other   |            | 0.01401    |            |       |  0.18

Nlocal:           1500 ave        1500 max        1500 min
Histogram: 1 0 0 0 0 0 0 0 0 0
Nghost:           4512 ave        4512 max        4512 min
Histogram: 1 0 0 0 0 0 0 0 0 0
Neighs:              0 ave           0 max           0 min
Histogram: 1 0 0 0 0 0 0 0 0 0
FullNghs:       192000 ave      192000 max      192000 min
Histogram: 1 0 0 0 0 0 0 0 0 0

Total # of neighbors = 192000
Ave neighs/atom = 128
Neighbor list builds = 1
Dangerous builds = 0
unfix           3
min_style       fire
minimize        0.0 1.0e-8 2000 4000
Switching to 'neigh_modify every 1 delay 0 check yes' setting during minimization
  Parameters for fire:
    dmax  delaystep dtgrow dtshrink alpha0 alphashrink tmax tmin   integrator   halfstepback   abcfire  
     0.1     20      1.1     0.5     0.25     0.99      10  0.02 eulerimplicit      yes          no     
Per MPI rank memory allocation (min/avg/max) = 3.766 | 3.766 | 3.766 Mbytes
   Step          Time           Temp          Fnorm          PotEng         KinEng           Lx             Ly             Lz            Pxx            Pyy            Pzz            Pxy            Pxz            Pyz      
       277   0.277          0              8.2938717e-09 -14480.296      0              24.270655      21.019004      38.757104     -36873.191     -36873.191     -2.2812929e-08 -1.6596114e-05 -1.0256058e-11  2.2111252e-11
       278   0.278          2.2430406e-20  8.2702727e-09 -14480.296      4.346137e-21   24.270655      21.019004      38.757104     -36873.191     -36873.191     -1.6333115e-08 -1.6596064e-05  8.9245702e-12 -6.1581333e-12
Loop time of 0.0790486 on 1 procs for 1 steps with 1500 atoms

101.8% CPU use with 1 MPI tasks x 1 OpenMP threads

Minimization stats:
  Stopping criterion = force tolerance
  Energy initial, next-to-last, final = 
     -14480.2961699703  -14480.2961699703  -14480.2961699704
  Force two-norm initial, final = 8.2938717e-09 8.2702727e-09
  Force max component initial, final = 2.4335251e-10 2.4241931e-10
  Final line search alpha, max atom move = 0 0
  Iterations, force evaluations = 1 2

MPI task timing breakdown:
Section |  min time  |  avg time  |  max time  |%varavg| %total
---------------------------------------------------------------
Pair    | 0.078889   | 0.078889   | 0.078889   |   0.0 | 99.80
Neigh   | 0          | 0          | 0          |   0.0 |  0.00
Comm    | 7.0029e-05 | 7.0029e-05 | 7.0029e-05 |   0.0 |  0.09
Output  | 0          | 0          | 0          |   0.0 |  0.00
Modify  | 0          | 0          | 0          |   0.0 |  0.00
Other   |            | 8.946e-05  |            |       |  0.11

Nlocal:           1500 ave        1500 max        1500 min
Histogram: 1 0 0 0 0 0 0 0 0 0
Nghost:           4512 ave        4512 max        4512 min
Histogram: 1 0 0 0 0 0 0 0 0 0
Neighs:              0 ave           0 max           0 min
Histogram: 1 0 0 0 0 0 0 0 0 0
FullNghs:       192000 ave      192000 max      192000 min
Histogram: 1 0 0 0 0 0 0 0 0 0

Total # of neighbors = 192000
Ave neighs/atom = 128
Neighbor list builds = 0
Dangerous builds = 0

fix             3 all box/relax z 0.0 vmax 0.001
min_style       cg
minimize        0.0 1.0e-8 1000 2000
Switching to 'neigh_modify every 1 delay 0 check yes' setting during minimization
WARNING: Energy due to 3 extra global DOFs will be included in minimizer energies
 (src/min.cpp:219)
Per MPI rank memory allocation (min/avg/max) = 4.891 | 4.891 | 4.891 Mbytes
   Step          Time           Temp          Fnorm          PotEng         KinEng           Lx             Ly             Lz            Pxx            Pyy            Pzz            Pxy            Pxz            Pyz      
       278   0.278          2.2430406e-20  8.270179e-09  -14480.296      4.346137e-21   24.270655      21.019004      38.757104     -36873.191     -36873.191     -1.6528736e-08 -1.6596098e-05 -2.8393088e-11  1.6929244e-11
       280   0.28           2.2430406e-20  1.6976611e-09 -14480.296      4.346137e-21   24.270655      21.019004      38.757104     -36873.191     -36873.191     -1.2631146e-09 -1.6553918e-05  6.2256074e-12  3.6375271e-11
Loop time of 0.131272 on 1 procs for 2 steps with 1500 atoms

100.6% CPU use with 1 MPI tasks x 1 OpenMP threads

Minimization stats:
  Stopping criterion = force tolerance
  Energy initial, next-to-last, final = 
     -14480.2961699704    -14480.29616997  -14480.2961699702
  Force two-norm initial, final = 8.272694e-09 1.6977327e-09
  Force max component initial, final = 2.4240629e-10 5.7924518e-11
  Final line search alpha, max atom move = 1 5.7924518e-11
  Iterations, force evaluations = 2 4

MPI task timing breakdown:
Section |  min time  |  avg time  |  max time  |%varavg| %total
---------------------------------------------------------------
Pair    | 0.13085    | 0.13085    | 0.13085    |   0.0 | 99.68
Neigh   | 0          | 0          | 0          |   0.0 |  0.00
Comm    | 8.6362e-05 | 8.6362e-05 | 8.6362e-05 |   0.0 |  0.07
Output  | 0          | 0          | 0          |   0.0 |  0.00
Modify  | 0          | 0          | 0          |   0.0 |  0.00
Other   |            | 0.0003396  |            |       |  0.26

Nlocal:           1500 ave        1500 max        1500 min
Histogram: 1 0 0 0 0 0 0 0 0 0
Nghost:           4512 ave        4512 max        4512 min
Histogram: 1 0 0 0 0 0 0 0 0 0
Neighs:              0 ave           0 max           0 min
Histogram: 1 0 0 0 0 0 0 0 0 0
FullNghs:       192000 ave      192000 max      192000 min
Histogram: 1 0 0 0 0 0 0 0 0 0

Total # of neighbors = 192000
Ave neighs/atom = 128
Neighbor list builds = 0
Dangerous builds = 0
unfix           3
min_style       fire
minimize        0.0 1.0e-8 2000 4000
Switching to 'neigh_modify every 1 delay 0 check yes' setting during minimization
  Parameters for fire:
    dmax  delaystep dtgrow dtshrink alpha0 alphashrink tmax tmin   integrator   halfstepback   abcfire  
     0.1     20      1.1     0.5     0.25     0.99      10  0.02 eulerimplicit      yes          no     
Per MPI rank memory allocation (min/avg/max) = 3.766 | 3.766 | 3.766 Mbytes
   Step          Time           Temp          Fnorm          PotEng         KinEng           Lx             Ly             Lz            Pxx            Pyy            Pzz            Pxy            Pxz            Pyz      
       280   0.28           0              1.6975523e-09 -14480.296      0              24.270655      21.019004      38.757104     -36873.191     -36873.191     -1.4249804e-09 -1.6553929e-05  4.3183404e-13  3.4768263e-11
       281   0.281          7.6798995e-22  1.6947955e-09 -14480.296      1.4880647e-22  24.270655      21.019004      38.757104     -36873.191     -36873.191     -2.1205211e-09 -1.6553855e-05  4.805953e-11   1.1902651e-10
Loop time of 0.0783164 on 1 procs for 1 steps with 1500 atoms

100.9% CPU use with 1 MPI tasks x 1 OpenMP threads

Minimization stats:
  Stopping criterion = force tolerance
  Energy initial, next-to-last, final = 
     -14480.2961699701  -14480.2961699701  -14480.2961699701
  Force two-norm initial, final = 1.6975523e-09 1.6947955e-09
  Force max component initial, final = 5.7928816e-11 5.7923347e-11
  Final line search alpha, max atom move = 0 0
  Iterations, force evaluations = 1 2

MPI task timing breakdown:
Section |  min time  |  avg time  |  max time  |%varavg| %total
---------------------------------------------------------------
Pair    | 0.078199   | 0.078199   | 0.078199   |   0.0 | 99.85
Neigh   | 0          | 0          | 0          |   0.0 |  0.00
Comm    | 4.8881e-05 | 4.8881e-05 | 4.8881e-05 |   0.0 |  0.06
Output  | 0          | 0          | 0          |   0.0 |  0.00
Modify  | 0          | 0          | 0          |   0.0 |  0.00
Other   |            | 6.807e-05  |            |       |  0.09

Nlocal:           1500 ave        1500 max        1500 min
Histogram: 1 0 0 0 0 0 0 0 0 0
Nghost:           4512 ave        4512 max        4512 min
Histogram: 1 0 0 0 0 0 0 0 0 0
Neighs:              0 ave           0 max           0 min
Histogram: 1 0 0 0 0 0 0 0 0 0
FullNghs:       192000 ave      192000 max      192000 min
Histogram: 1 0 0 0 0 0 0 0 0 0

Total # of neighbors = 192000
Ave neighs/atom = 128
Neighbor list builds = 0
Dangerous builds = 0

fix             3 all box/relax z 0.0 vmax 0.001
min_style       cg
minimize        0.0 1.0e-8 1000 2000
Switching to 'neigh_modify every 1 delay 0 check yes' setting during minimization
WARNING: Energy due to 3 extra global DOFs will be included in minimizer energies
 (src/min.cpp:219)
Per MPI rank memory allocation (min/avg/max) = 4.891 | 4.891 | 4.891 Mbytes
   Step          Time           Temp          Fnorm          PotEng         KinEng           Lx             Ly             Lz            Pxx            Pyy            Pzz            Pxy            Pxz            Pyz      
       281   0.281          7.6798995e-22  1.6948001e-09 -14480.296      1.4880647e-22  24.270655      21.019004      38.757104     -36873.191     -36873.191     -2.3872505e-09 -1.6553853e-05  3.5212467e-11  5.5020605e-11
       283   0.283          7.6798995e-22  5.4545376e-10 -14480.296      1.4880647e-22  24.270655      21.019004      38.757104     -36873.191     -36873.191      2.1895425e-09 -1.6503443e-05 -3.8505202e-12  1.1270419e-11
Loop time of 0.132017 on 1 procs for 2 steps with 1500 atoms

100.0% CPU use with 1 MPI tasks x 1 OpenMP threads

Minimization stats:
  Stopping criterion = force tolerance
  Energy initial, next-to-last, final = 
     -14480.2961699701  -14480.2961699703  -14480.2961699702
  Force two-norm initial, final = 1.6950561e-09 5.4612259e-10
  Force max component initial, final = 5.7929953e-11 2.7020164e-11
  Final line search alpha, max atom move = 1 2.7020164e-11
  Iterations, force evaluations = 2 4

MPI task timing breakdown:
Section |  min time  |  avg time  |  max time  |%varavg| %total
---------------------------------------------------------------
Pair    | 0.13159    | 0.13159    | 0.13159    |   0.0 | 99.68
Neigh   | 0          | 0          | 0          |   0.0 |  0.00
Comm    | 8.1571e-05 | 8.1571e-05 | 8.1571e-05 |   0.0 |  0.06
Output  | 0          | 0          | 0          |   0.0 |  0.00
Modify  | 0          | 0          | 0          |   0.0 |  0.00
Other   |            | 0.0003406  |            |       |  0.26

Nlocal:           1500 ave        1500 max        1500 min
Histogram: 1 0 0 0 0 0 0 0 0 0
Nghost:           4512 ave        4512 max        4512 min
Histogram: 1 0 0 0 0 0 0 0 0 0
Neighs:              0 ave           0 max           0 min
Histogram: 1 0 0 0 0 0 0 0 0 0
FullNghs:       192000 ave      192000 max      192000 min
Histogram: 1 0 0 0 0 0 0 0 0 0

Total # of neighbors = 192000
Ave neighs/atom = 128
Neighbor list builds = 0
Dangerous builds = 0
unfix           3
min_style       fire
minimize        0.0 1.0e-8 2000 4000
Switching to 'neigh_modify every 1 delay 0 check yes' setting during minimization
  Parameters for fire:
    dmax  delaystep dtgrow dtshrink alpha0 alphashrink tmax tmin   integrator   halfstepback   abcfire  
     0.1     20      1.1     0.5     0.25     0.99      10  0.02 eulerimplicit      yes          no     
Per MPI rank memory allocation (min/avg/max) = 3.766 | 3.766 | 3.766 Mbytes
   Step          Time           Temp          Fnorm          PotEng         KinEng           Lx             Ly             Lz            Pxx            Pyy            Pzz            Pxy            Pxz            Pyz      
       283   0.283          0              5.4537317e-10 -14480.296      0              24.270655      21.019004      38.757104     -36873.191     -36873.191      1.9372075e-09 -1.6503458e-05 -7.7433241e-11 -1.1440003e-10
       284   0.284          1.0888711e-22  5.4403209e-10 -14480.296      2.109807e-23   24.270655      21.019004      38.757104     -36873.191     -36873.191      2.3569502e-09 -1.6503432e-05 -8.1526668e-11 -9.4342243e-11
Loop time of 0.0814225 on 1 procs for 1 steps with 1500 atoms

86.0% CPU use with 1 MPI tasks x 1 OpenMP threads

Minimization stats:
  Stopping criterion = force tolerance
  Energy initial, next-to-last, final = 
     -14480.2961699702  -14480.2961699702  -14480.2961699702
  Force two-norm initial, final = 5.4537317e-10 5.4403209e-10
  Force max component initial, final = 2.0377897e-11 2.0317751e-11
  Final line search alpha, max atom move = 0 0
  Iterations, force evaluations = 1 2

MPI task timing breakdown:
Section |  min time  |  avg time  |  max time  |%varavg| %total
---------------------------------------------------------------
Pair    | 0.081309   | 0.081309   | 0.081309   |   0.0 | 99.86
Neigh   | 0          | 0          | 0          |   0.0 |  0.00
Comm    | 4.1796e-05 | 4.1796e-05 | 4.1796e-05 |   0.0 |  0.05
Output  | 0          | 0          | 0          |   0.0 |  0.00
Modify  | 0          | 0          | 0          |   0.0 |  0.00
Other   |            | 7.119e-05  |            |       |  0.09

Nlocal:           1500 ave        1500 max        1500 min
Histogram: 1 0 0 0 0 0 0 0 0 0
Nghost:           4512 ave        4512 max        4512 min
Histogram: 1 0 0 0 0 0 0 0 0 0
Neighs:              0 ave           0 max           0 min
Histogram: 1 0 0 0 0 0 0 0 0 0
FullNghs:       192000 ave      192000 max      192000 min
Histogram: 1 0 0 0 0 0 0 0 0 0

Total # of neighbors = 192000
Ave neighs/atom = 128
Neighbor list builds = 0
Dangerous builds = 0

fix             3 all box/relax z 0.0 vmax 0.001
min_style       cg
minimize        0.0 1.0e-8 1000 2000
Switching to 'neigh_modify every 1 delay 0 check yes' setting during minimization
WARNING: Energy due to 3 extra global DOFs will be included in minimizer energies
 (src/min.cpp:219)
Per MPI rank memory allocation (min/avg/max) = 4.891 | 4.891 | 4.891 Mbytes
   Step          Time           Temp          Fnorm          PotEng         KinEng           Lx             Ly             Lz            Pxx            Pyy            Pzz            Pxy            Pxz            Pyz      
       284   0.284          1.0888711e-22  5.439861e-10  -14480.296      2.109807e-23   24.270655      21.019004      38.757104     -36873.191     -36873.191      2.0866221e-09 -1.6503426e-05 -4.2769563e-11 -9.0606429e-11
       285   0.285          1.0888711e-22  4.690987e-10  -14480.296      2.109807e-23   24.270655      21.019004      38.757104     -36873.191     -36873.191     -8.0085062e-07 -1.6498365e-05 -3.0300355e-11 -6.9858153e-11
Loop time of 0.0780772 on 1 procs for 1 steps with 1500 atoms

101.6% CPU use with 1 MPI tasks x 1 OpenMP threads

Minimization stats:
  Stopping criterion = force tolerance
  Energy initial, next-to-last, final = 
     -14480.2961699702  -14480.2961699702  -14480.2961699702
  Force two-norm initial, final = 5.4459521e-10 9.8940657e-09
  Force max component initial, final = 2.5750069e-11 9.8829389e-09
  Final line search alpha, max atom move = 1 9.8829389e-09
  Iterations, force evaluations = 1 2

MPI task timing breakdown:
Section |  min time  |  avg time  |  max time  |%varavg| %total
---------------------------------------------------------------
Pair    | 0.077858   | 0.077858   | 0.077858   |   0.0 | 99.72
Neigh   | 0          | 0          | 0          |   0.0 |  0.00
Comm    | 4.0592e-05 | 4.0592e-05 | 4.0592e-05 |   0.0 |  0.05
Output  | 0          | 0          | 0          |   0.0 |  0.00
Modify  | 0          | 0          | 0          |   0.0 |  0.00
Other   |            | 0.0001783  |            |       |  0.23

Nlocal:           1500 ave        1500 max        1500 min
Histogram: 1 0 0 0 0 0 0 0 0 0
Nghost:           4512 ave        4512 max        4512 min
Histogram: 1 0 0 0 0 0 0 0 0 0
Neighs:              0 ave           0 max           0 min
Histogram: 1 0 0 0 0 0 0 0 0 0
FullNghs:       192000 ave      192000 max      192000 min
Histogram: 1 0 0 0 0 0 0 0 0 0

Total # of neighbors = 192000
Ave neighs/atom = 128
Neighbor list builds = 0
Dangerous builds = 0
unfix           3
min_style       fire
minimize        0.0 1.0e-8 2000 4000
Switching to 'neigh_modify every 1 delay 0 check yes' setting during minimization
  Parameters for fire:
    dmax  delaystep dtgrow dtshrink alpha0 alphashrink tmax tmin   integrator   halfstepback   abcfire  
     0.1     20      1.1     0.5     0.25     0.99      10  0.02 eulerimplicit      yes          no     
Per MPI rank memory allocation (min/avg/max) = 3.766 | 3.766 | 3.766 Mbytes
   Step          Time           Temp          Fnorm          PotEng         KinEng           Lx             Ly             Lz            Pxx            Pyy            Pzz            Pxy            Pxz            Pyz      
       285   0.285          0              4.6917983e-10 -14480.296      0              24.270655      21.019004      38.757104     -36873.191     -36873.191     -8.0081291e-07 -1.6498333e-05 -5.8891367e-11 -8.0959886e-11
       286   0.286          7.9430095e-23  4.6808247e-10 -14480.296      1.5390451e-23  24.270655      21.019004      38.757104     -36873.191     -36873.191     -8.0077498e-07 -1.6498289e-05 -2.5496201e-11 -2.2543086e-11
Loop time of 0.0780767 on 1 procs for 1 steps with 1500 atoms

100.9% CPU use with 1 MPI tasks x 1 OpenMP threads

Minimization stats:
  Stopping criterion = force tolerance
  Energy initial, next-to-last, final = 
     -14480.2961699702  -14480.2961699702  -14480.2961699702
  Force two-norm initial, final = 4.6917983e-10 4.6808247e-10
  Force max component initial, final = 1.7707075e-11 1.7666282e-11
  Final line search alpha, max atom move = 0 0
  Iterations, force evaluations = 1 2

MPI task timing breakdown:
Section |  min time  |  avg time  |  max time  |%varavg| %total
---------------------------------------------------------------
Pair    | 0.077949   | 0.077949   | 0.077949   |   0.0 | 99.84
Neigh   | 0          | 0          | 0          |   0.0 |  0.00
Comm    | 5.3659e-05 | 5.3659e-05 | 5.3659e-05 |   0.0 |  0.07
Output  | 0          | 0          | 0          |   0.0 |  0.00
Modify  | 0          | 0          | 0          |   0.0 |  0.00
Other   |            | 7.39e-05   |            |       |  0.09

Nlocal:           1500 ave        1500 max        1500 min
Histogram: 1 0 0 0 0 0 0 0 0 0
Nghost:           4512 ave        4512 max        4512 min
Histogram: 1 0 0 0 0 0 0 0 0 0
Neighs:              0 ave           0 max           0 min
Histogram: 1 0 0 0 0 0 0 0 0 0
FullNghs:       192000 ave      192000 max      192000 min
Histogram: 1 0 0 0 0 0 0 0 0 0

Total # of neighbors = 192000
Ave neighs/atom = 128
Neighbor list builds = 0
Dangerous builds = 0

fix             3 all box/relax z 0.0 vmax 0.001
min_style       cg
minimize        0.0 1.0e-8 1000 2000
Switching to 'neigh_modify every 1 delay 0 check yes' setting during minimization
WARNING: Energy due to 3 extra global DOFs will be included in minimizer energies
 (src/min.cpp:219)
Per MPI rank memory allocation (min/avg/max) = 4.891 | 4.891 | 4.891 Mbytes
   Step          Time           Temp          Fnorm          PotEng         KinEng           Lx             Ly             Lz            Pxx            Pyy            Pzz            Pxy            Pxz            Pyz      
       286   0.286          7.9430095e-23  4.6808415e-10 -14480.296      1.5390451e-23  24.270655      21.019004      38.757104     -36873.191     -36873.191     -8.0043441e-07 -1.6498243e-05 -2.1681667e-11 -1.186644e-11 
       287   0.287          7.9430095e-23  4.5432747e-10 -14480.296      1.5390451e-23  24.270655      21.019004      38.757104     -36873.191     -36873.191      6.1536351e-11 -1.6498243e-05  2.5919039e-11  5.787026e-11 
Loop time of 0.0789725 on 1 procs for 1 steps with 1500 atoms

100.3% CPU use with 1 MPI tasks x 1 OpenMP threads

Minimization stats:
  Stopping criterion = force tolerance
  Energy initial, next-to-last, final = 
     -14480.2961699702  -14480.2961699702  -14480.2961699702
  Force two-norm initial, final = 9.888887e-09 4.543281e-10
  Force max component initial, final = 9.8778026e-09 1.7288417e-11
  Final line search alpha, max atom move = 1 1.7288417e-11
  Iterations, force evaluations = 1 2

MPI task timing breakdown:
Section |  min time  |  avg time  |  max time  |%varavg| %total
---------------------------------------------------------------
Pair    | 0.078712   | 0.078712   | 0.078712   |   0.0 | 99.67
Neigh   | 0          | 0          | 0          |   0.0 |  0.00
Comm    | 6.3232e-05 | 6.3232e-05 | 6.3232e-05 |   0.0 |  0.08
Output  | 0          | 0          | 0          |   0.0 |  0.00
Modify  | 0          | 0          | 0          |   0.0 |  0.00
Other   |            | 0.0001969  |            |       |  0.25

Nlocal:           1500 ave        1500 max        1500 min
Histogram: 1 0 0 0 0 0 0 0 0 0
Nghost:           4512 ave        4512 max        4512 min
Histogram: 1 0 0 0 0 0 0 0 0 0
Neighs:              0 ave           0 max           0 min
Histogram: 1 0 0 0 0 0 0 0 0 0
FullNghs:       192000 ave      192000 max      192000 min
Histogram: 1 0 0 0 0 0 0 0 0 0

Total # of neighbors = 192000
Ave neighs/atom = 128
Neighbor list builds = 0
Dangerous builds = 0
unfix           3
min_style       fire
minimize        0.0 1.0e-8 2000 4000
Switching to 'neigh_modify every 1 delay 0 check yes' setting during minimization
  Parameters for fire:
    dmax  delaystep dtgrow dtshrink alpha0 alphashrink tmax tmin   integrator   halfstepback   abcfire  
     0.1     20      1.1     0.5     0.25     0.99      10  0.02 eulerimplicit      yes          no     
Per MPI rank memory allocation (min/avg/max) = 3.766 | 3.766 | 3.766 Mbytes
   Step          Time           Temp          Fnorm          PotEng         KinEng           Lx             Ly             Lz            Pxx            Pyy            Pzz            Pxy            Pxz            Pyz      
       287   0.287          0              4.5432576e-10 -14480.296      0              24.270655      21.019004      38.757104     -36873.191     -36873.191      9.6730825e-11 -1.6498178e-05  1.9972324e-12  3.1865754e-11
       288   0.288          7.4681833e-23  4.5325078e-10 -14480.296      1.4470424e-23  24.270655      21.019004      38.757104     -36873.191     -36873.191      6.0248046e-10 -1.6498137e-05 -4.129413e-11  -5.4878909e-13
Loop time of 0.0779048 on 1 procs for 1 steps with 1500 atoms

100.7% CPU use with 1 MPI tasks x 1 OpenMP threads

Minimization stats:
  Stopping criterion = force tolerance
  Energy initial, next-to-last, final = 
     -14480.2961699702  -14480.2961699702  -14480.2961699702
  Force two-norm initial, final = 4.5432576e-10 4.5325078e-10
  Force max component initial, final = 1.7302267e-11 1.7259361e-11
  Final line search alpha, max atom move = 0 0
  Iterations, force evaluations = 1 2

MPI task timing breakdown:
Section |  min time  |  avg time  |  max time  |%varavg| %total
---------------------------------------------------------------
Pair    | 0.077795   | 0.077795   | 0.077795   |   0.0 | 99.86
Neigh   | 0          | 0          | 0          |   0.0 |  0.00
Comm    | 4.1677e-05 | 4.1677e-05 | 4.1677e-05 |   0.0 |  0.05
Output  | 0          | 0          | 0          |   0.0 |  0.00
Modify  | 0          | 0          | 0          |   0.0 |  0.00
Other   |            | 6.816e-05  |            |       |  0.09

Nlocal:           1500 ave        1500 max        1500 min
Histogram: 1 0 0 0 0 0 0 0 0 0
Nghost:           4512 ave        4512 max        4512 min
Histogram: 1 0 0 0 0 0 0 0 0 0
Neighs:              0 ave           0 max           0 min
Histogram: 1 0 0 0 0 0 0 0 0 0
FullNghs:       192000 ave      192000 max      192000 min
Histogram: 1 0 0 0 0 0 0 0 0 0

Total # of neighbors = 192000
Ave neighs/atom = 128
Neighbor list builds = 0
Dangerous builds = 0

fix             3 all box/relax z  0.0 vmax 0.001
min_style       cg
minimize        0.0 1.0e-8 1000 2000
Switching to 'neigh_modify every 1 delay 0 check yes' setting during minimization
WARNING: Energy due to 3 extra global DOFs will be included in minimizer energies
 (src/min.cpp:219)
Per MPI rank memory allocation (min/avg/max) = 4.891 | 4.891 | 4.891 Mbytes
   Step          Time           Temp          Fnorm          PotEng         KinEng           Lx             Ly             Lz            Pxx            Pyy            Pzz            Pxy            Pxz            Pyz      
       288   0.288          7.4681833e-23  4.5324458e-10 -14480.296      1.4470424e-23  24.270655      21.019004      38.757104     -36873.191     -36873.191      8.4243624e-10 -1.6498074e-05  1.2865056e-11 -2.3188588e-11
       290   0.29           7.4681833e-23  2.2786762e-10 -14480.296      1.4470424e-23  24.270655      21.019004      38.757104     -36873.191     -36873.191      1.4639174e-10 -1.6466446e-05 -3.8685133e-13  2.7929766e-11
Loop time of 0.132036 on 1 procs for 2 steps with 1500 atoms

101.9% CPU use with 1 MPI tasks x 1 OpenMP threads

Minimization stats:
  Stopping criterion = force tolerance
  Energy initial, next-to-last, final = 
     -14480.2961699702  -14480.2961699702  -14480.2961699701
  Force two-norm initial, final = 4.533638e-10 2.2787478e-10
  Force max component initial, final = 1.7317498e-11 1.0209257e-11
  Final line search alpha, max atom move = 1 1.0209257e-11
  Iterations, force evaluations = 2 4

MPI task timing breakdown:
Section |  min time  |  avg time  |  max time  |%varavg| %total
---------------------------------------------------------------
Pair    | 0.13159    | 0.13159    | 0.13159    |   0.0 | 99.66
Neigh   | 0          | 0          | 0          |   0.0 |  0.00
Comm    | 9.021e-05  | 9.021e-05  | 9.021e-05  |   0.0 |  0.07
Output  | 0          | 0          | 0          |   0.0 |  0.00
Modify  | 0          | 0          | 0          |   0.0 |  0.00
Other   |            | 0.0003568  |            |       |  0.27

Nlocal:           1500 ave        1500 max        1500 min
Histogram: 1 0 0 0 0 0 0 0 0 0
Nghost:           4512 ave        4512 max        4512 min
Histogram: 1 0 0 0 0 0 0 0 0 0
Neighs:              0 ave           0 max           0 min
Histogram: 1 0 0 0 0 0 0 0 0 0
FullNghs:       192000 ave      192000 max      192000 min
Histogram: 1 0 0 0 0 0 0 0 0 0

Total # of neighbors = 192000
Ave neighs/atom = 128
Neighbor list builds = 0
Dangerous builds = 0
unfix           3
min_style       fire
minimize        0.0 1.0e-8 2000 4000
Switching to 'neigh_modify every 1 delay 0 check yes' setting during minimization
  Parameters for fire:
    dmax  delaystep dtgrow dtshrink alpha0 alphashrink tmax tmin   integrator   halfstepback   abcfire  
     0.1     20      1.1     0.5     0.25     0.99      10  0.02 eulerimplicit      yes          no     
Per MPI rank memory allocation (min/avg/max) = 3.766 | 3.766 | 3.766 Mbytes
   Step          Time           Temp          Fnorm          PotEng         KinEng           Lx             Ly             Lz            Pxx            Pyy            Pzz            Pxy            Pxz            Pyz      
       290   0.29           0              2.2793956e-10 -14480.296      0              24.270655      21.019004      38.757104     -36873.191     -36873.191      3.6576343e-10 -1.6466452e-05 -7.197234e-13   4.761645e-11 
       291   0.291          2.2711568e-23  2.2752638e-10 -14480.296      4.4006151e-24  24.270655      21.019004      38.757104     -36873.191     -36873.191      2.6039593e-10 -1.6466446e-05  5.3061608e-11  7.3267842e-11
Loop time of 0.0781861 on 1 procs for 1 steps with 1500 atoms

101.4% CPU use with 1 MPI tasks x 1 OpenMP threads

Minimization stats:
  Stopping criterion = force tolerance
  Energy initial, next-to-last, final = 
     -14480.2961699701  -14480.2961699701  -14480.2961699701
  Force two-norm initial, final = 2.2793956e-10 2.2752638e-10
  Force max component initial, final = 1.0202221e-11 1.0189776e-11
  Final line search alpha, max atom move = 0 0
  Iterations, force evaluations = 1 2

MPI task timing breakdown:
Section |  min time  |  avg time  |  max time  |%varavg| %total
---------------------------------------------------------------
Pair    | 0.078077   | 0.078077   | 0.078077   |   0.0 | 99.86
Neigh   | 0          | 0          | 0          |   0.0 |  0.00
Comm    | 4.223e-05  | 4.223e-05  | 4.223e-05  |   0.0 |  0.05
Output  | 0          | 0          | 0          |   0.0 |  0.00
Modify  | 0          | 0          | 0          |   0.0 |  0.00
Other   |            | 6.724e-05  |            |       |  0.09

Nlocal:           1500 ave        1500 max        1500 min
Histogram: 1 0 0 0 0 0 0 0 0 0
Nghost:           4512 ave        4512 max        4512 min
Histogram: 1 0 0 0 0 0 0 0 0 0
Neighs:              0 ave           0 max           0 min
Histogram: 1 0 0 0 0 0 0 0 0 0
FullNghs:       192000 ave      192000 max      192000 min
Histogram: 1 0 0 0 0 0 0 0 0 0

Total # of neighbors = 192000
Ave neighs/atom = 128
Neighbor list builds = 0
Dangerous builds = 0


write_data      fire_cg_${name}.data
write_data      fire_cg_TaFe2.data
System init for write_data ...

write_data      bi_minimised.data
System init for write_data ...

print """- step: $(step)
  atoms: $(atoms)
  temp: $(temp)
  press: $(press)
  pe: $(pe)
  ke: $(ke)
  etotal: $(etotal)
  vol: $(vol)
  avecx: $(avecx)
  avecy: $(avecy)
  avecz: $(avecz)
  bvecx: $(bvecx)
  bvecy: $(bvecy)
  bvecz: $(bvecz)
  cvecx: $(cvecx)
  cvecy: $(cvecy)
  cvecz: $(cvecz)
  lx: $(lx)
  ly: $(ly)
  lz: $(lz)
  cella: $(cella)
  cellb: $(cellb)
  cellc: $(cellc)
  cellalpha: $(cellalpha)
  cellbeta: $(cellbeta)
  cellgamma: $(cellgamma)
  pxx: $(pxx)
  pyy: $(pyy)
  pzz: $(pzz)
  pxy: $(pxy)
  pyz: $(pyz)
  pxz: $(pxz)
  xlo: $(xlo)
  xhi: $(xhi)
  ylo: $(ylo)
  yhi: $(yhi)
  zlo: $(zlo)
  zhi: $(zhi)
  xy: $(xy)
  xz: $(xz)
  yz: $(yz)
""" file bi_minimised.data.yaml screen yes universe no
- step: 291
  atoms: 1500
  temp: 2.2711567536179999672e-23
  press: -24582.1270450304728
  pe: -14480.296169970131814
  ke: 4.4006150688429754547e-24
  etotal: -14480.296169970131814
  vol: 19771.742731612263015
  avecx: 24.270655320927847498
  avecy: 0
  avecz: 0
  bvecx: -12.135327659999999739
  bvecy: 21.019004074418550232
  bvecz: 0
  cvecx: 0
  cvecy: 0
  cvecz: 38.757103592633463052
  lx: 24.270655320927847498
  ly: 21.019004074418550232
  lz: 38.757103592633463052
  cella: 24.270655320927847498
  cellb: 24.270655320695084356
  cellc: 38.757103592633463052
  cellalpha: 90
  cellbeta: 90
  cellgamma: 119.99999999905264758
  pxx: -36873.190567510901019
  pyy: -36873.190567580779316
  pzz: 2.6039592640885727014e-10
  pxy: -1.6466446031471069979e-05
  pyz: 7.3267842201276557185e-11
  pxz: 5.3061607723859943592e-11
  xlo: -0.97053158608278999875
  xhi: 23.300123734845058721
  ylo: -1.6814352745418499335
  yhi: 19.337568799876699188
  zlo: 0.38527795368328637826
  zhi: 39.142381546316748597
  xy: -12.135327659999999739
  xz: 0
  yz: 0

[GRACE:debug, proc #0]: Data preparation timer: 834034 mcs, graph execution time: 1.91465e+07 mcs, data preparation time fraction: 4.17 %
Total wall time: 0:00:33
