# LAMMPS data file written by OVITO Basic 3.11.1

12 atoms
2 atom types

0.0 4.86479207 xlo xhi
0.0 4.2130335167 ylo yhi
0.0 7.9055319 zlo zhi
-2.432396035 0.0 0.0 xy xz yz

Masses

1 180.9479  # Ta
2 55.845  # Fe

Atoms  # atomic

1 1 2.4323960593 1.4043444915 3.4968854684
2 1 -2.4323959957e-08 2.8086890252 7.4496514184
3 1 -2.4323959957e-08 2.8086890252 4.4086464316
4 1 2.4323960593 1.4043444915 0.4558804816
5 2 1.235571079 0.7133573231 5.929148925
6 2 -1.1968249074 3.4996761936 1.976382975
7 2 2.4323960623e-08 1.4267146041 1.976382975
8 2 2.4323960107 2.7863189126 5.929148925
9 2 0.0 0.0 0.0
10 2 1.196824956 3.4996761936 1.976382975
11 2 3.6292209424 0.7133573231 5.929148925
12 2 0.0 0.0 3.95276595
