
thermo          10
thermo_style    custom step time temp fnorm pe ke lx ly lz pxx pyy pzz pxy pxz pyz

timestep        0.001

min_style       fire
minimize        0.0 1.0e-8 2000 4000

CITE-CITE-CITE-CITE-CITE-CITE-CITE-CITE-CITE-CITE-CITE-CITE-CITE

Your simulation uses code contributions which should be cited:

- Type Label Framework: https://doi.org/10.1021/acs.jpcb.3c08419

@Article{Gissinger24,
 author = {Jacob R. Gissinger, Ilia Nikiforov, Yaser Afshar, Brendon Waters, Moon-ki Choi, Daniel S. Karls, Alexander Stukowski, Wonpil Im, Hendrik Heinz, Axel Kohlmeyer, and Ellad B. Tadmor},
 title = {Type Label Framework for Bonded Force Fields in LAMMPS},
 journal = {J. Phys. Chem. B},
 year =    2024,
 volume =  128,
 number =  13,
 pages =   {3282–-3297}
}

CITE-CITE-CITE-CITE-CITE-CITE-CITE-CITE-CITE-CITE-CITE-CITE-CITE

Switching to 'neigh_modify every 1 delay 0 check yes' setting during minimization
Neighbor list info ...
  update: every = 1 steps, delay = 0 steps, check = yes
  max neighbors/atom: 2000, page size: 100000
  master list distance cutoff = 7.4
  ghost atom cutoff = 7.4
  binsize = 3.7, bins = 2 2 55
  1 neighbor lists, perpetual/occasional/extra = 1 0 0
  (1) pair grace, perpetual
      attributes: full, newton on
      pair build: full/bin/atomonly
      stencil: full/bin/3d
      bin: standard
  Parameters for fire:
    dmax  delaystep dtgrow dtshrink alpha0 alphashrink tmax tmin   integrator   halfstepback   abcfire  
     0.1     20      1.1     0.5     0.25     0.99      10  0.02 eulerimplicit      yes          no     
[GRACE] Atoms padding: new num. of atoms = 321 (incl. 0.935% fake atoms)
[GRACE] Neighbours padding: extending new num. of neighbours = 22012 (incl. 0.990% fake neighbours)
Per MPI rank memory allocation (min/avg/max) = 4.491 | 4.491 | 4.491 Mbytes
   Step          Time           Temp          Fnorm          PotEng         KinEng           Lx             Ly             Lz            Pxx            Pyy            Pzz            Pxy            Pxz            Pyz      
         0   0              0              51.077153     -3102.5413      0              4.8541311      4.2038008      202.37599      179531.66      179531.66      362195.59      1.4941649e-05  1.6046555e-07  2.4475515e-07
        10   0.01           286.37745      42.092491     -3118.2009      11.73445       4.8541311      4.2038008      202.37599      163574.94      163574.94      355586.72      1.4644344e-05  1.3364269e-07  1.4262059e-07
        20   0.02           804.86512      27.558899     -3147.0587      32.979723      4.8541311      4.2038008      202.37599      134212.91      134212.91      343808.02      1.4006977e-05  1.031957e-07   8.3816493e-08
        30   0.070738431    1551.3665      4.9718775     -3176.0653      63.567963      4.8541311      4.2038008      202.37599      113796.99      113796.99      320710.79      1.2580316e-05  7.47274e-08    1.8063263e-07
        40   0.057062334    1.5790706      3.2022779     -3177.2279      0.064703154    4.8541311      4.2038008      202.37599      117193.62      117193.62      260561.02      1.2179536e-05  5.9065052e-08 -1.6516706e-08
        50   0.071327918    6.895062       2.2323872     -3177.4375      0.28252838     4.8541311      4.2038008      202.37599      117316.09      117316.09      260387.78      1.2185131e-05  6.0801048e-08 -1.8945584e-08
        60   0.16679752     12.888003      1.0177924     -3177.6663      0.52809192     4.8541311      4.2038008      202.37599      117799.55      117799.55      259854.56      1.2180201e-05  6.1549367e-08 -1.8240262e-08
        70   0.50473478     12.685753      0.41362186    -3177.9263      0.51980464     4.8541311      4.2038008      202.37599      118025.81      118025.81      258615.85      1.2093831e-05  5.1577352e-08  2.0643201e-09
        80   0.8            6.7840367      0.17628386    -3178.0783      0.27797907     4.8541311      4.2038008      202.37599      117870.72      117870.72      258445.12      1.2055039e-05  7.2154076e-08  6.0086415e-09
        90   0.9            2.3148544      0.10839892    -3178.125       0.094852238    4.8541311      4.2038008      202.37599      117853.01      117853.01      258226.6       1.2055464e-05  7.4083969e-08  8.3776714e-10
       100   1              0.82699872     0.052216876   -3178.1394      0.033886658    4.8541311      4.2038008      202.37599      117864.81      117864.81      258153.06      1.2056225e-05  7.7479568e-08 -3.0088177e-10
       110   1.1            0.25484346     0.029299998   -3178.143       0.010442329    4.8541311      4.2038008      202.37599      117866.21      117866.21      258142.15      1.2052704e-05  8.0329617e-08  3.1605463e-11
       120   1.2            0.092276759    0.016891155   -3178.1443      0.0037810832   4.8541311      4.2038008      202.37599      117867.31      117867.31      258140.42      1.2051694e-05  8.0609735e-08  1.782351e-10 
       130   1.3            0.069848745    0.015181438   -3178.1451      0.0028620849   4.8541311      4.2038008      202.37599      117863.84      117863.84      258126.13      1.2047577e-05  8.0780777e-08  7.360919e-11 
       140   1.4            0.060588876    0.011446135   -3178.1457      0.0024826574   4.8541311      4.2038008      202.37599      117862.04      117862.04      258117.91      1.2045096e-05  8.0999694e-08 -1.9892859e-10
       150   1.5            0.048514529    0.0070094553  -3178.1462      0.0019879054   4.8541311      4.2038008      202.37599      117860.95      117860.95      258108.59      1.2042794e-05  8.0949079e-08  1.2850265e-10
       160   1.6            0.036517624    0.0088455678  -3178.1464      0.0014963267   4.8541311      4.2038008      202.37599      117860.37      117860.37      258100.75      1.2039375e-05  8.1094403e-08 -8.2443475e-11
       170   1.7            0.024300506    0.0044724128  -3178.1466      0.00099572457  4.8541311      4.2038008      202.37599      117859.31      117859.31      258096.01      1.2036351e-05  8.1901664e-08 -1.201988e-10 
       180   1.8            0.012805942    0.0032187882  -3178.1467      0.00052472945  4.8541311      4.2038008      202.37599      117858.97      117858.97      258092.72      1.2034024e-05  8.1220969e-08  7.3689609e-11
       190   1.9            0.0056116959   0.0027716216  -3178.1467      0.00022994186  4.8541311      4.2038008      202.37599      117858.8       117858.8       258090.13      1.203115e-05   8.2203609e-08 -2.1548732e-10
       200   1              4.9811841e-07  0.00074869624 -3178.1467      2.0410634e-08  4.8541311      4.2038008      202.37599      117858.6       117858.6       258089.08      1.2029524e-05  8.229745e-08  -3.0573278e-10
       210   0.525          5.824764e-08   0.0002476916  -3178.1467      2.3867242e-09  4.8541311      4.2038008      202.37599      117858.64      117858.64      258089.01      1.2029535e-05  8.2044438e-08 -2.0539512e-10
       220   0.55           1.5696424e-07  0.00018948299 -3178.1467      6.431683e-09   4.8541311      4.2038008      202.37599      117858.65      117858.65      258088.98      1.2029496e-05  8.2076481e-08 -2.7523871e-11
       230   1.1205123      3.1233727e-07  0.0001606049  -3178.1467      1.2798165e-08  4.8541311      4.2038008      202.37599      117858.66      117858.66      258088.95      1.2029665e-05  8.1820272e-08  2.5370304e-11
       240   2.4            8.5567047e-07  0.00012955109 -3178.1467      3.5061496e-08  4.8541311      4.2038008      202.37599      117858.65      117858.65      258088.93      1.2029315e-05  8.1826523e-08  2.5414688e-12
       250   2.5            1.645917e-06   9.0043688e-05 -3178.1467      6.7442217e-08  4.8541311      4.2038008      202.37599      117858.64      117858.64      258088.88      1.2028795e-05  8.2161792e-08 -2.3690135e-11
       260   2.6            1.1931865e-06  0.00010018352 -3178.1467      4.8891372e-08  4.8541311      4.2038008      202.37599      117858.63      117858.63      258088.81      1.2027958e-05  8.2076895e-08 -1.2105637e-10
       270   2.7            6.5261228e-07  8.0637838e-05 -3178.1467      2.6741092e-08  4.8541311      4.2038008      202.37599      117858.62      117858.62      258088.76      1.2027309e-05  8.2180004e-08 -1.4038171e-11
       280   2.8            3.1925955e-07  2.9419187e-05 -3178.1467      1.3081809e-08  4.8541311      4.2038008      202.37599      117858.61      117858.61      258088.73      1.2026451e-05  8.2191681e-08 -5.091102e-11 
       290   2.9            2.3397388e-07  3.7493998e-05 -3178.1467      9.5871887e-09  4.8541311      4.2038008      202.37599      117858.61      117858.61      258088.71      1.2025461e-05  8.2167057e-08 -2.0483344e-10
       300   3              2.0325432e-07  2.8820704e-05 -3178.1467      8.3284404e-09  4.8541311      4.2038008      202.37599      117858.61      117858.61      258088.7       1.2024932e-05  8.2174204e-08  1.3208466e-10
       310   3.1            1.7186719e-07  1.3522749e-05 -3178.1467      7.0423381e-09  4.8541311      4.2038008      202.37599      117858.61      117858.61      258088.69      1.2023562e-05  8.2372771e-08 -8.9376688e-11
       320   3.2            1.3517923e-07  1.5187387e-05 -3178.1467      5.5390321e-09  4.8541311      4.2038008      202.37599      117858.61      117858.61      258088.68      1.2022547e-05  8.2446602e-08 -2.5882567e-10
       330   3.3            9.1276666e-08  1.1923958e-05 -3178.1467      3.7401039e-09  4.8541311      4.2038008      202.37599      117858.6       117858.6       258088.67      1.2021213e-05  8.2583076e-08  2.3847597e-10
       340   3.4            5.6705441e-08  6.8620873e-06 -3178.1467      2.3235319e-09  4.8541311      4.2038008      202.37599      117858.6       117858.6       258088.67      1.2020028e-05  8.2665796e-08  5.211411e-12 
       350   3.5            2.9354982e-08  7.1953319e-06 -3178.1467      1.2028341e-09  4.8541311      4.2038008      202.37599      117858.6       117858.6       258088.66      1.2018639e-05  8.2573044e-08 -7.5787347e-11
       360   3.6            1.3201973e-08  3.5085696e-06 -3178.1467      5.40957e-10    4.8541311      4.2038008      202.37599      117858.6       117858.6       258088.66      1.2017209e-05  8.281221e-08   2.6232432e-11
       370   1.85           6.6108304e-12  1.3717103e-06 -3178.1467      2.7088186e-13  4.8541311      4.2038008      202.37599      117858.6       117858.6       258088.66      1.2016646e-05  8.289281e-08  -2.7566916e-11
       380   0.95           4.3394757e-13  4.5472672e-07 -3178.1467      1.7781204e-14  4.8541311      4.2038008      202.37599      117858.6       117858.6       258088.66      1.2016686e-05  8.291495e-08  -9.5471932e-11
       390   0.975          8.0881033e-13  3.9422087e-07 -3178.1467      3.314138e-14   4.8541311      4.2038008      202.37599      117858.6       117858.6       258088.66      1.2016688e-05  8.2807094e-08  2.7588437e-11
       400   2.3579477      1.8545449e-12  3.8386408e-07 -3178.1467      7.599084e-14   4.8541311      4.2038008      202.37599      117858.6       117858.6       258088.66      1.2016733e-05  8.2812005e-08 -5.3626237e-11
       410   4.1            5.9591451e-12  3.6504418e-07 -3178.1467      2.4417875e-13  4.8541311      4.2038008      202.37599      117858.6       117858.6       258088.66      1.2016599e-05  8.2715951e-08  1.1272278e-10
       420   4.2            1.3006995e-11  3.3283516e-07 -3178.1467      5.3296768e-13  4.8541311      4.2038008      202.37599      117858.6       117858.6       258088.66      1.201633e-05   8.2770912e-08 -1.6189093e-10
       430   4.3            2.19967e-11    2.9702117e-07 -3178.1467      9.0132503e-13  4.8541311      4.2038008      202.37599      117858.6       117858.6       258088.66      1.2015764e-05  8.2896686e-08 -1.3417326e-11
       440   4.4            2.2548563e-11  3.8764624e-07 -3178.1467      9.2393789e-13  4.8541311      4.2038008      202.37599      117858.6       117858.6       258088.66      1.2015615e-05  8.2853613e-08  7.6971972e-11
       450   4.5            1.8457331e-11  2.1097554e-07 -3178.1467      7.5629772e-13  4.8541311      4.2038008      202.37599      117858.6       117858.6       258088.66      1.2014824e-05  8.2923564e-08 -1.2133743e-10
       460   4.6            1.8177546e-11  1.8274168e-07 -3178.1467      7.4483344e-13  4.8541311      4.2038008      202.37599      117858.6       117858.6       258088.66      1.2014358e-05  8.2935538e-08 -2.4058581e-10
       470   4.7            1.368707e-11   1.4235801e-07 -3178.1467      5.6083408e-13  4.8541311      4.2038008      202.37599      117858.6       117858.6       258088.66      1.2013459e-05  8.3157365e-08 -3.4544771e-11
       480   4.8            1.128968e-11   2.2218444e-07 -3178.1467      4.625999e-13   4.8541311      4.2038008      202.37599      117858.6       117858.6       258088.66      1.2012888e-05  8.3237482e-08  2.2719005e-10
       490   4.9            6.8837576e-12  7.7173364e-08 -3178.1467      2.8206517e-13  4.8541311      4.2038008      202.37599      117858.6       117858.6       258088.65      1.2012325e-05  8.2860332e-08 -8.7287997e-11
       500   5              4.2391752e-12  6.308329e-08  -3178.1467      1.7370218e-13  4.8541311      4.2038008      202.37599      117858.6       117858.6       258088.65      1.2011819e-05  8.3094651e-08 -1.367146e-10 
       510   5.1            2.9425094e-12  4.2598656e-08 -3178.1467      1.2057069e-13  4.8541311      4.2038008      202.37599      117858.6       117858.6       258088.65      1.2010641e-05  8.315995e-08   1.9387284e-10
       520   5.2            1.5708239e-12  3.0657703e-08 -3178.1467      6.4365242e-14  4.8541311      4.2038008      202.37599      117858.6       117858.6       258088.65      1.2009983e-05  8.2972926e-08 -2.1125291e-10
       530   5.3            6.2107288e-13  3.8540707e-08 -3178.1467      2.5448751e-14  4.8541311      4.2038008      202.37599      117858.6       117858.6       258088.65      1.2009102e-05  8.3321045e-08 -6.5686744e-12
       540   1.35           1.4542501e-17  1.1034227e-08 -3178.1467      5.9588577e-19  4.8541311      4.2038008      202.37599      117858.6       117858.6       258088.65      1.2009197e-05  8.3257641e-08 -5.4358483e-11
       542   1.355          2.9280702e-17  9.3212527e-09 -3178.1467      1.1997904e-18  4.8541311      4.2038008      202.37599      117858.6       117858.6       258088.65      1.2009183e-05  8.3306486e-08 -3.1637326e-11
Loop time of 3.88198 on 2 procs for 542 steps with 318 atoms

102.5% CPU use with 1 MPI tasks x 2 OpenMP threads

Minimization stats:
  Stopping criterion = force tolerance
  Energy initial, next-to-last, final = 
      -3102.5412849559  -3178.14668594646  -3178.14668594646
  Force two-norm initial, final = 51.077153 9.3212527e-09
  Force max component initial, final = 18.675802 1.9008898e-09
  Final line search alpha, max atom move = 0 0
  Iterations, force evaluations = 542 550

MPI task timing breakdown:
Section |  min time  |  avg time  |  max time  |%varavg| %total
---------------------------------------------------------------
Pair    | 3.851      | 3.851      | 3.851      |   0.0 | 99.20
Neigh   | 0          | 0          | 0          |   0.0 |  0.00
Comm    | 0.021026   | 0.021026   | 0.021026   |   0.0 |  0.54
Output  | 0.002834   | 0.002834   | 0.002834   |   0.0 |  0.07
Modify  | 0          | 0          | 0          |   0.0 |  0.00
Other   |            | 0.007152   |            |       |  0.18

Nlocal:            318 ave         318 max         318 min
Histogram: 1 0 0 0 0 0 0 0 0 0
Nghost:           6814 ave        6814 max        6814 min
Histogram: 1 0 0 0 0 0 0 0 0 0
Neighs:              0 ave           0 max           0 min
Histogram: 1 0 0 0 0 0 0 0 0 0
FullNghs:        40164 ave       40164 max       40164 min
Histogram: 1 0 0 0 0 0 0 0 0 0

Total # of neighbors = 40164
Ave neighs/atom = 126.30189
Neighbor list builds = 0
Dangerous builds = 0

#write_data      fire_${name}.data

fix             3 all box/relax z 0.0 vmax 0.001
min_style       cg
minimize        0.0 1.0e-8 1000 2000
Switching to 'neigh_modify every 1 delay 0 check yes' setting during minimization
WARNING: Energy due to 3 extra global DOFs will be included in minimizer energies
 (src/min.cpp:219)
Per MPI rank memory allocation (min/avg/max) = 5.618 | 5.618 | 5.618 Mbytes
   Step          Time           Temp          Fnorm          PotEng         KinEng           Lx             Ly             Lz            Pxx            Pyy            Pzz            Pxy            Pxz            Pyz      
       542   0.542          2.9280702e-17  9.3212885e-09 -3178.1467      1.1997904e-18  4.8541311      4.2038008      202.37599      117858.6       117858.6       258088.65      1.2009126e-05  8.3239292e-08 -4.6702207e-11
       550   0.55           2.9280702e-17  0.43224196    -3183.0889      1.1997904e-18  4.8541311      4.2038008      203.995        102858.44      102858.44      221691.41      1.1518333e-05  8.8020895e-08 -3.1418285e-11
       560   0.56           2.9280702e-17  0.92182856    -3188.2523      1.1997904e-18  4.8541311      4.2038008      206.01876      85042.512      85042.512      179537.49      1.0957528e-05  9.390896e-08   8.5120508e-11
       570   0.57           2.9280702e-17  1.363434      -3192.3726      1.1997904e-18  4.8541311      4.2038008      208.04252      68190.641      68190.641      140688.19      1.0454605e-05  1.000372e-07   3.6304325e-10
       580   0.58           2.9280702e-17  1.7644556     -3195.5297      1.1997904e-18  4.8541311      4.2038008      210.06628      52233.076      52233.076      104721.4       1.0006656e-05  1.0558531e-07  2.2053272e-10
       590   0.59           2.9280702e-17  2.1307219     -3197.7928      1.1997904e-18  4.8541311      4.2038008      212.09004      37113.983      37113.983      71261.342      9.6095611e-06  1.1059789e-07  2.3765828e-10
       600   0.6            2.9280702e-17  2.4661467     -3199.2225      1.1997904e-18  4.8541311      4.2038008      214.1138       22787.789      22787.789      39981.967      9.2585909e-06  1.1622002e-07 -3.2706993e-11
       610   0.61           2.9280702e-17  2.7714164     -3199.8719      1.1997904e-18  4.8541311      4.2038008      216.13756      9219.0116      9219.0116      10623.361      8.9491006e-06  1.216696e-07   8.5662596e-11
       620   0.62           2.9280702e-17  0.50210907    -3200.5078      1.1997904e-18  4.8541311      4.2038008      217.19596      438.45812      438.45812      669.22528      8.9078241e-06  1.1450961e-07 -5.9559235e-11
       630   0.63           2.9280702e-17  0.2610719     -3200.5284      1.1997904e-18  4.8541311      4.2038008      217.27148      38.428916      38.428916      41.426489      8.9412505e-06  1.1299587e-07  1.6048122e-12
       640   0.64           2.9280702e-17  0.10284788    -3200.5365      1.1997904e-18  4.8541311      4.2038008      217.27675     -8.4530982     -8.4530982     -8.8069847      8.9339513e-06  1.1294266e-07 -1.3419917e-11
       650   0.65           2.9280702e-17  0.17888584    -3200.5368      1.1997904e-18  4.8541311      4.2038008      217.2783       0.95933972     0.95933973    -47.998055      8.917603e-06   1.1284517e-07  3.3423178e-10
       660   0.66           2.9280702e-17  0.23204478    -3200.537       1.1997904e-18  4.8541311      4.2038008      217.27849      3.8019534      3.8019534     -91.107111      8.9097101e-06  1.1411813e-07  3.0189556e-10
       670   0.67           2.9280702e-17  0.2008666     -3200.5373      1.1997904e-18  4.8541311      4.2038008      217.27753      10.790315      10.790315     -105.37674      8.9155164e-06  1.1608784e-07  4.4833194e-11
       680   0.68           2.9280702e-17  0.22901609    -3200.5376      1.1997904e-18  4.8541311      4.2038008      217.28299     -21.341979     -21.341979     -181.64035      8.934837e-06   1.1856335e-07 -4.7576151e-10
       690   0.69           2.9280702e-17  0.196821      -3200.5383      1.1997904e-18  4.8541311      4.2038008      217.29389     -107.28691     -107.28691     -318.14679      8.9562215e-06  1.2330025e-07 -8.0380768e-10
       700   0.7            2.9280702e-17  0.11064397    -3200.5418      1.1997904e-18  4.8541311      4.2038008      217.25553      158.2969       158.2969       310.52087      8.9224493e-06  1.233225e-07   8.2914699e-11
       710   0.71           2.9280702e-17  0.13744217    -3200.5422      1.1997904e-18  4.8541311      4.2038008      217.27322      23.772452      23.772452      85.902672      8.9402809e-06  1.2256022e-07 -4.414402e-10 
       720   0.72           2.9280702e-17  0.1445048     -3200.5424      1.1997904e-18  4.8541311      4.2038008      217.27826     -8.1663245     -8.1663245      56.191526      8.9517038e-06  1.2159764e-07 -2.2350325e-10
       730   0.73           2.9280702e-17  0.13508017    -3200.5425      1.1997904e-18  4.8541311      4.2038008      217.28258     -24.56494      -24.56494       37.449595      8.946104e-06   1.2068278e-07 -5.6727215e-11
       740   0.74           2.9280702e-17  0.10850402    -3200.5426      1.1997904e-18  4.8541311      4.2038008      217.28449     -35.055678     -35.055678      18.973741      8.930727e-06   1.1995968e-07 -2.1507209e-10
       750   0.75           2.9280702e-17  0.093070738   -3200.5428      1.1997904e-18  4.8541311      4.2038008      217.28307     -28.015002     -28.015002      4.7816747      8.9095472e-06  1.1959049e-07  2.1719975e-10
       760   0.76           2.9280702e-17  0.040420468   -3200.5438      1.1997904e-18  4.8541311      4.2038008      217.28216     -18.084806     -18.084806     -5.5350205      8.9269407e-06  1.2235041e-07 -2.5274551e-11
       770   0.77           2.9280702e-17  0.055773007   -3200.5444      1.1997904e-18  4.8541311      4.2038008      217.27995     -9.452368      -9.452368       14.196092      8.9228132e-06  1.2398537e-07  2.9703916e-10
       780   0.78           2.9280702e-17  0.055701493   -3200.5452      1.1997904e-18  4.8541311      4.2038008      217.28248     -15.313748     -15.313748      12.251863      8.9234358e-06  1.2443221e-07  4.0206535e-10
       790   0.79           2.9280702e-17  0.092519738   -3200.5461      1.1997904e-18  4.8541311      4.2038008      217.28469     -18.387845     -18.387845      13.659523      8.931737e-06   1.2750686e-07  5.9534916e-11
       800   0.8            2.9280702e-17  0.054603996   -3200.547       1.1997904e-18  4.8541311      4.2038008      217.28518     -24.249479     -24.249479      9.5925559      8.9329699e-06  1.2938346e-07  1.5906699e-10
       810   0.81           2.9280702e-17  0.038462444   -3200.5473      1.1997904e-18  4.8541311      4.2038008      217.2859      -30.367656     -30.367656      4.9017713      8.9219199e-06  1.3240267e-07  1.0829357e-09
       820   0.82           2.9280702e-17  0.044103932   -3200.5476      1.1997904e-18  4.8541311      4.2038008      217.29448     -82.752232     -82.752232     -108.63991      8.9227372e-06  1.3496113e-07  4.2360552e-10
       830   0.83           2.9280702e-17  0.038794172   -3200.5477      1.1997904e-18  4.8541311      4.2038008      217.28591     -30.114365     -30.114365      11.003633      8.9137453e-06  1.2630227e-07 -1.4753664e-09
       840   0.84           2.9280702e-17  0.035481012   -3200.5477      1.1997904e-18  4.8541311      4.2038008      217.28603     -32.877665     -32.877665      5.8724441      8.9132985e-06  1.2278254e-07 -2.1511669e-09
       850   0.85           2.9280702e-17  0.029503738   -3200.5477      1.1997904e-18  4.8541311      4.2038008      217.28625     -31.342851     -31.342851      2.4610783      8.9293045e-06  1.3387723e-07  1.2780257e-09
       860   0.86           2.9280702e-17  0.032868273   -3200.5478      1.1997904e-18  4.8541311      4.2038008      217.28589     -27.087404     -27.087404      5.8781427      8.9073163e-06  1.2616052e-07 -1.2252731e-09
       870   0.87           2.9280702e-17  0.033114181   -3200.5479      1.1997904e-18  4.8541311      4.2038008      217.28636     -33.518707     -33.518707      5.2331384      8.9350805e-06  1.327477e-07   1.0950489e-09
       880   0.88           2.9280702e-17  0.033451723   -3200.548       1.1997904e-18  4.8541311      4.2038008      217.28554     -26.799452     -26.799452      6.4129438      8.8913393e-06  1.2369843e-07 -2.0368965e-09
       890   0.89           2.9280702e-17  0.021918363   -3200.5481      1.1997904e-18  4.8541311      4.2038008      217.28458     -23.568187     -23.568187      16.065913      8.9335988e-06  1.3146554e-07  5.1723993e-10
       900   0.9            2.9280702e-17  0.015287484   -3200.5481      1.1997904e-18  4.8541311      4.2038008      217.28595     -31.931198     -31.931198      2.446505       8.9310347e-06  1.3167998e-07  1.0189077e-09
       910   0.91           2.9280702e-17  0.012585532   -3200.5481      1.1997904e-18  4.8541311      4.2038008      217.28552     -28.49351      -28.49351       3.2406961      8.8909452e-06  1.2306847e-07 -2.3571965e-09
       920   0.92           2.9280702e-17  0.017666955   -3200.5481      1.1997904e-18  4.8541311      4.2038008      217.28538     -26.752892     -26.752892      2.6844927      8.9480309e-06  1.3688812e-07  3.3268839e-09
       930   0.93           2.9280702e-17  0.031323096   -3200.5482      1.1997904e-18  4.8541311      4.2038008      217.2862      -38.390422     -38.390422      5.5780723      8.9178845e-06  1.2078637e-07 -3.4278673e-09
       940   0.94           2.9280702e-17  0.022087486   -3200.5482      1.1997904e-18  4.8541311      4.2038008      217.28618     -29.01515      -29.01515       3.2311596      8.8786689e-06  1.1168046e-07 -2.4898783e-09
       950   0.95           2.9280702e-17  0.015121866   -3200.5483      1.1997904e-18  4.8541311      4.2038008      217.28659     -34.410036     -34.410036      3.2982379      8.9371623e-06  1.4255296e-07  2.6417987e-09
       960   0.96           2.9280702e-17  0.018748695   -3200.5483      1.1997904e-18  4.8541311      4.2038008      217.28715     -36.990689     -36.990689      5.6549219      8.9708732e-06  1.3855628e-07  9.0408602e-10
       970   0.97           2.9280702e-17  0.015082086   -3200.5483      1.1997904e-18  4.8541311      4.2038008      217.28719     -35.061707     -35.061707      2.832447       8.9090311e-06  1.2636028e-07  2.5494611e-11
       980   0.98           2.9280702e-17  0.014677332   -3200.5483      1.1997904e-18  4.8541311      4.2038008      217.28676     -32.78722      -32.78722       2.8027437      8.8969424e-06  1.3180596e-07 -1.5772189e-09
       990   0.99           2.9280702e-17  0.016680722   -3200.5483      1.1997904e-18  4.8541311      4.2038008      217.28698     -36.586648     -36.586648      3.0062463      8.9576249e-06  1.272473e-07   3.3704872e-09
      1000   1              2.9280702e-17  0.012913902   -3200.5484      1.1997904e-18  4.8541311      4.2038008      217.28717     -37.450386     -37.450386      2.1867264      8.8478857e-06  1.2234106e-07 -4.3966272e-09
      1010   1.01           2.9280702e-17  0.0094996939  -3200.5484      1.1997904e-18  4.8541311      4.2038008      217.28705     -35.724713     -35.724713      2.1489804      8.9424646e-06  1.322556e-07   1.9956015e-09
      1020   1.02           2.9280702e-17  0.0074826029  -3200.5484      1.1997904e-18  4.8541311      4.2038008      217.28718     -37.297455     -37.297455      1.6605508      8.8813316e-06  1.2025273e-07 -3.3544972e-09
      1030   1.03           2.9280702e-17  0.0050586222  -3200.5484      1.1997904e-18  4.8541311      4.2038008      217.28711     -37.054551     -37.054551      1.0167944      8.9624579e-06  1.4371281e-07  3.1530888e-09
      1040   1.04           2.9280702e-17  0.0047978866  -3200.5484      1.1997904e-18  4.8541311      4.2038008      217.28701     -35.560147     -35.560147      0.95216774     8.7946846e-06  9.5812319e-08 -6.2780582e-09
      1050   1.05           2.9280702e-17  0.0048169536  -3200.5484      1.1997904e-18  4.8541311      4.2038008      217.28702     -35.818138     -35.818138      1.0742619      9.0793291e-06  1.7210976e-07  6.3093295e-09
      1060   1.06           2.9280702e-17  0.0043009349  -3200.5484      1.1997904e-18  4.8541311      4.2038008      217.28707     -36.254911     -36.254911      0.93724015     8.828146e-06   1.1213258e-07 -1.2868467e-09
      1070   1.07           2.9280702e-17  0.0045001581  -3200.5484      1.1997904e-18  4.8541311      4.2038008      217.28708     -36.172721     -36.172721      0.88553823     8.8866679e-06  1.16445e-07   -3.9019212e-09
      1080   1.08           2.9280702e-17  0.0049462593  -3200.5484      1.1997904e-18  4.8541311      4.2038008      217.28709     -35.831954     -35.831954      0.87269782     9.0899766e-06  1.7225124e-07  7.6397012e-09
      1090   1.09           2.9280702e-17  0.0041895722  -3200.5484      1.1997904e-18  4.8541311      4.2038008      217.28719     -36.673073     -36.673073      0.67734907     8.6600663e-06  8.0615525e-08 -8.3540084e-09
      1100   1.1            2.9280702e-17  0.0047866299  -3200.5484      1.1997904e-18  4.8541311      4.2038008      217.28731     -37.051201     -37.051201      0.83170489     9.2974021e-06  2.014778e-07   1.126123e-08 
      1110   1.11           2.9280702e-17  0.0040405947  -3200.5484      1.1997904e-18  4.8541311      4.2038008      217.2874      -38.028135     -38.028135      0.75886842     8.5680917e-06  6.2195357e-08 -9.1811e-09   
      1120   1.12           2.9280702e-17  0.0027040182  -3200.5484      1.1997904e-18  4.8541311      4.2038008      217.28736     -37.446497     -37.446497      0.50175147     9.1769515e-06  1.8752429e-07  5.2559777e-09
      1130   1.13           2.9280702e-17  0.001863507   -3200.5484      1.1997904e-18  4.8541311      4.2038008      217.28739     -37.245705     -37.245705      0.38247076     8.7230706e-06  8.4266753e-08 -2.9823051e-09
      1140   1.14           2.9280702e-17  0.0019826557  -3200.5484      1.1997904e-18  4.8541311      4.2038008      217.28743     -37.603644     -37.603644      0.45049775     9.0743511e-06  1.722143e-07   1.4047696e-09
      1150   1.15           2.9280702e-17  0.0020893168  -3200.5484      1.1997904e-18  4.8541311      4.2038008      217.28749     -38.100979     -38.100979      0.52516835     8.9312995e-06  1.2922232e-07  2.5556758e-09
      1160   1.16           2.9280702e-17  0.0025806227  -3200.5484      1.1997904e-18  4.8541311      4.2038008      217.28741     -37.055788     -37.055788      0.54714594     8.5115748e-06  4.1551259e-08 -9.9272826e-09
      1170   1.17           2.9280702e-17  0.0031023988  -3200.5484      1.1997904e-18  4.8541311      4.2038008      217.28737     -36.584312     -36.584312      0.65981918     9.4805665e-06  2.5371726e-07  9.4419043e-09
      1180   1.18           2.9280702e-17  0.0029511918  -3200.5484      1.1997904e-18  4.8541311      4.2038008      217.28734     -36.47896      -36.47896       0.67423497     8.8587645e-06  1.2004231e-07  3.5053361e-09
      1190   1.19           2.9280702e-17  0.0037559749  -3200.5484      1.1997904e-18  4.8541311      4.2038008      217.28736     -37.509386     -37.509386      0.82992334     7.9357847e-06 -7.2651901e-08 -2.6139999e-08
      1200   1.2            2.9280702e-17  0.003998705   -3200.5484      1.1997904e-18  4.8541311      4.2038008      217.28729     -37.180593     -37.180593      1.0324325      1.0194368e-05  3.8227741e-07  2.4168599e-08
      1210   1.21           2.9280702e-17  0.0036736193  -3200.5484      1.1997904e-18  4.8541311      4.2038008      217.28716     -36.158883     -36.158883      1.0826045      8.641438e-06   8.1268868e-08  1.6489058e-09
      1220   1.22           2.9280702e-17  0.0025633176  -3200.5484      1.1997904e-18  4.8541311      4.2038008      217.28709     -36.002854     -36.002854      0.74418801     8.0158757e-06 -3.9026852e-08 -1.9081853e-08
      1230   1.23           2.9280702e-17  0.0026684554  -3200.5484      1.1997904e-18  4.8541311      4.2038008      217.28705     -36.097739     -36.097739      0.72386271     1.0273744e-05  3.9199537e-07  1.7903086e-08
      1240   1.24           2.9280702e-17  0.0028517269  -3200.5484      1.1997904e-18  4.8541311      4.2038008      217.28701     -35.970856     -35.970856      0.75247112     9.1798191e-06  1.6466567e-07  1.1575225e-08
      1250   1.25           2.9280702e-17  0.0029183805  -3200.5484      1.1997904e-18  4.8541311      4.2038008      217.28703     -36.320163     -36.320163      0.65998547     7.1288851e-06 -2.0755074e-07 -2.6035533e-08
      1260   1.26           2.9280702e-17  0.0035010479  -3200.5484      1.1997904e-18  4.8541311      4.2038008      217.28705     -36.534205     -36.534205      0.7650778      9.2904994e-06  2.3564989e-07 -5.80082e-09  
      1270   1.27           2.9280702e-17  0.0031223252  -3200.5484      1.1997904e-18  4.8541311      4.2038008      217.28707     -36.494115     -36.494116      0.55030296     1.1616506e-05  6.4056721e-07  4.0186149e-08
      1280   1.28           2.9280702e-17  0.0033704794  -3200.5484      1.1997904e-18  4.8541311      4.2038008      217.28711     -36.61974      -36.61974       0.5217227      6.4562131e-06 -3.856914e-07  -1.8767892e-08
      1290   1.29           2.9280702e-17  0.0028370471  -3200.5484      1.1997904e-18  4.8541311      4.2038008      217.28712     -36.182191     -36.182191      0.38576865     8.3834319e-06  9.3966669e-08 -2.7688802e-08
      1300   1.3            2.9280702e-17  0.0015956723  -3200.5484      1.1997904e-18  4.8541311      4.2038008      217.28719     -36.545965     -36.545965      0.24289103     9.9563779e-06  3.0214785e-07  2.1631987e-08
      1310   1.31           2.9280702e-17  0.0014659226  -3200.5484      1.1997904e-18  4.8541311      4.2038008      217.28721     -36.913066     -36.913066      0.30495245     7.3936804e-06 -1.4671411e-07 -2.1964197e-08
      1320   1.32           2.9280702e-17  0.0018222402  -3200.5484      1.1997904e-18  4.8541311      4.2038008      217.28718     -36.426547     -36.426548      0.42368839     1.2184873e-05  7.5875961e-07  3.6833556e-08
      1330   1.33           2.9280702e-17  0.0017737613  -3200.5484      1.1997904e-18  4.8541311      4.2038008      217.28713     -36.244245     -36.244245      0.46850789     4.9776359e-06 -6.2963319e-07 -4.0370618e-08
      1340   1.34           2.9280702e-17  0.0010175786  -3200.5484      1.1997904e-18  4.8541311      4.2038008      217.28712     -36.283465     -36.283465      0.26217777     9.9264686e-06  3.3449296e-07  5.044304e-09 
      1350   1.35           2.9280702e-17  0.00090193542 -3200.5484      1.1997904e-18  4.8541311      4.2038008      217.28712     -36.347055     -36.347055      0.23496626     9.6690398e-06  2.5800475e-07  1.5738123e-08
      1360   1.36           2.9280702e-17  0.00073685814 -3200.5484      1.1997904e-18  4.8541311      4.2038008      217.28713     -36.346027     -36.346026      0.18211984     6.9244798e-06 -2.3893634e-07 -2.0800359e-08
      1370   1.37           2.9280702e-17  0.000778314   -3200.5484      1.1997904e-18  4.8541311      4.2038008      217.28713     -36.47287      -36.47287       0.18932645     1.0430372e-05  4.3629195e-07  4.4637847e-09
      1380   1.38           2.9280702e-17  0.00058785463 -3200.5484      1.1997904e-18  4.8541311      4.2038008      217.28714     -36.564703     -36.564703      0.13929746     1.0193003e-05  3.4407595e-07  1.9731068e-08
      1390   1.39           2.9280702e-17  0.00073211478 -3200.5484      1.1997904e-18  4.8541311      4.2038008      217.28714     -36.575153     -36.575153      0.16472014     5.712476e-06  -4.5966192e-07 -2.7467952e-08
      1400   1.4            2.9280702e-17  0.00070819963 -3200.5484      1.1997904e-18  4.8541311      4.2038008      217.28714     -36.63683      -36.63683       0.16069056     9.1642474e-06  2.1064996e-07 -8.2033292e-09
      1410   1.41           2.9280702e-17  0.00061858185 -3200.5484      1.1997904e-18  4.8541311      4.2038008      217.28715     -36.671976     -36.671976      0.13550902     1.2550863e-05  7.8549229e-07  3.4096872e-08
      1420   1.42           2.9280702e-17  0.00074351056 -3200.5484      1.1997904e-18  4.8541311      4.2038008      217.28715     -36.600135     -36.600134      0.15893073     4.5037177e-06 -7.3156673e-07 -2.2388786e-08
      1430   1.43           2.9280702e-17  0.00079796334 -3200.5484      1.1997904e-18  4.8541311      4.2038008      217.28714     -36.565269     -36.565269      0.16728075     7.2756721e-06 -8.8728086e-08 -3.2686345e-08
      1440   1.44           2.9280702e-17  0.00091879571 -3200.5484      1.1997904e-18  4.8541311      4.2038008      217.28715     -36.444689     -36.444689      0.18720144     1.5474328e-05  1.3287303e-06  5.2817262e-08
      1450   1.45           2.9280702e-17  0.00099601859 -3200.5484      1.1997904e-18  4.8541311      4.2038008      217.28716     -36.538602     -36.538601      0.19879598     5.2797005e-06 -6.4765509e-07 -3.2475044e-11
      1460   1.46           2.9280702e-17  0.0010037466  -3200.5484      1.1997904e-18  4.8541311      4.2038008      217.28717     -36.619275     -36.619275      0.20544285     6.2651829e-06 -2.5506857e-07 -4.6192709e-08
      1470   1.47           2.9280702e-17  0.0010955787  -3200.5484      1.1997904e-18  4.8541311      4.2038008      217.28717     -36.554228     -36.554228      0.22352947     1.8327832e-05  1.9165159e-06  5.2888024e-08
      1480   1.48           2.9280702e-17  0.0019510639  -3200.5484      1.1997904e-18  4.8541311      4.2038008      217.28716     -36.354815     -36.354813      0.40519107    -7.2636088e-06 -3.1740735e-06 -1.9927763e-08
      1490   1.49           2.9280702e-17  0.0013907339  -3200.5484      1.1997904e-18  4.8541311      4.2038008      217.28714     -35.983241     -35.98324       0.27730173    -5.9833681e-07 -1.5140795e-06 -8.6772645e-08
      1500   1.5            2.9280702e-17  0.00078851161 -3200.5484      1.1997904e-18  4.8541311      4.2038008      217.28719     -36.621936     -36.621936     -0.17747552     5.5453713e-06 -5.845783e-07  -8.1017101e-11
      1510   1.51           2.9280702e-17  0.00067935032 -3200.5484      1.1997904e-18  4.8541311      4.2038008      217.28721     -36.839178     -36.839178     -0.13731396     1.3761619e-05  1.1087698e-06  4.7887339e-09
      1520   1.52           2.9280702e-17  0.00072190723 -3200.5484      1.1997904e-18  4.8541311      4.2038008      217.28722     -36.931879     -36.931879     -0.16143547     1.1578495e-06 -1.5199596e-06  2.0828553e-09
      1530   1.53           2.9280702e-17  0.00054457488 -3200.5484      1.1997904e-18  4.8541311      4.2038008      217.28721     -36.899156     -36.899155     -0.13723975     4.7517446e-06 -6.5524536e-07 -9.8715284e-09
      1540   1.54           2.9280702e-17  0.00063145078 -3200.5484      1.1997904e-18  4.8541311      4.2038008      217.28721     -36.852619     -36.85262      -0.17287993     1.5653272e-05  1.5966556e-06 -6.9943887e-09
      1542   1.542          2.9280702e-17  0.00062526759 -3200.5484      1.1997904e-18  4.8541311      4.2038008      217.28721     -36.840204     -36.840205     -0.17604509     1.7258994e-05  1.9079308e-06 -4.2558946e-09
Loop time of 13.688 on 2 procs for 1000 steps with 318 atoms

103.4% CPU use with 1 MPI tasks x 2 OpenMP threads

Minimization stats:
  Stopping criterion = max iterations
  Energy initial, next-to-last, final = 
     -3178.14668594646  -3200.54837861726  -3200.54837861781
  Force two-norm initial, final = 665.22899 0.00077256564
  Force max component initial, final = 665.22899 0.00045375997
  Final line search alpha, max atom move = 1 0.00045375997
  Iterations, force evaluations = 1000 1929

MPI task timing breakdown:
Section |  min time  |  avg time  |  max time  |%varavg| %total
---------------------------------------------------------------
Pair    | 13.477     | 13.477     | 13.477     |   0.0 | 98.46
Neigh   | 0.016142   | 0.016142   | 0.016142   |   0.0 |  0.12
Comm    | 0.051128   | 0.051128   | 0.051128   |   0.0 |  0.37
Output  | 0.0034014  | 0.0034014  | 0.0034014  |   0.0 |  0.02
Modify  | 0          | 0          | 0          |   0.0 |  0.00
Other   |            | 0.1405     |            |       |  1.03

Nlocal:            318 ave         318 max         318 min
Histogram: 1 0 0 0 0 0 0 0 0 0
Nghost:           6773 ave        6773 max        6773 min
Histogram: 1 0 0 0 0 0 0 0 0 0
Neighs:              0 ave           0 max           0 min
Histogram: 1 0 0 0 0 0 0 0 0 0
FullNghs:        38948 ave       38948 max       38948 min
Histogram: 1 0 0 0 0 0 0 0 0 0

Total # of neighbors = 38948
Ave neighs/atom = 122.47799
Neighbor list builds = 18
Dangerous builds = 0
unfix           3
min_style       fire
minimize        0.0 1.0e-8 2000 4000
Switching to 'neigh_modify every 1 delay 0 check yes' setting during minimization
  Parameters for fire:
    dmax  delaystep dtgrow dtshrink alpha0 alphashrink tmax tmin   integrator   halfstepback   abcfire  
     0.1     20      1.1     0.5     0.25     0.99      10  0.02 eulerimplicit      yes          no     
Per MPI rank memory allocation (min/avg/max) = 4.493 | 4.493 | 4.493 Mbytes
   Step          Time           Temp          Fnorm          PotEng         KinEng           Lx             Ly             Lz            Pxx            Pyy            Pzz            Pxy            Pxz            Pyz      
      1542   1.542          0              0.00062526759 -3200.5484      0              4.8541311      4.2038008      217.28721     -36.840204     -36.840205     -0.17604509     1.7258966e-05  1.9079144e-06 -4.3008662e-09
      1550   1.55           2.637541e-08   0.00058425644 -3200.5484      1.0807447e-09  4.8541311      4.2038008      217.28721     -36.842065     -36.842066     -0.17674907     1.6779228e-05  1.7839389e-06 -5.8413199e-09
      1560   1.56           1.2156402e-07  0.00046157711 -3200.5484      4.9811424e-09  4.8541311      4.2038008      217.28721     -36.848008     -36.848008     -0.18188294     1.503291e-05   1.3767888e-06 -7.4768763e-09
      1570   3.0594858      2.7199574e-07  0.00030786996 -3200.5484      1.1145152e-08  4.8541311      4.2038008      217.28721     -36.858214     -36.858214     -0.19222319     1.1486842e-05  5.931963e-07  -7.5249789e-09
      1580   7.9860631      5.3887642e-07  0.00017482022 -3200.5484      2.2080712e-08  4.8541311      4.2038008      217.28721     -36.872786     -36.872786     -0.20828315     8.3853959e-06  2.0785981e-08 -2.7157203e-09
      1590   15.9           5.433187e-07   6.8734223e-05 -3200.5484      2.2262737e-08  4.8541311      4.2038008      217.28721     -36.860492     -36.860492     -0.25731737     8.9195889e-06  1.3846329e-07 -1.7390252e-10
      1600   16             4.4235106e-07  2.9472701e-05 -3200.5484      1.8125541e-08  4.8541311      4.2038008      217.28721     -36.843313     -36.843313     -0.16842906     8.7978039e-06  1.1317207e-07 -1.1555323e-10
      1610   16.1           1.361073e-07   1.3307385e-05 -3200.5484      5.5770599e-09  4.8541311      4.2038008      217.28721     -36.837574     -36.837574     -0.1242469      8.9349256e-06  1.3395344e-07 -2.0173985e-10
      1620   16.2           6.4433324e-08  1.196359e-05  -3200.5484      2.6401855e-09  4.8541311      4.2038008      217.28721     -36.832157     -36.832157     -0.10886326     8.894035e-06   1.2900714e-07  4.9213532e-11
      1630   16.3           6.3729389e-08  8.24899e-06   -3200.5484      2.6113414e-09  4.8541311      4.2038008      217.28721     -36.832299     -36.832299     -0.10418903     8.9192223e-06  1.3167784e-07 -4.8652362e-11
      1640   16.4           6.1286449e-08  8.2582718e-06 -3200.5484      2.5112408e-09  4.8541311      4.2038008      217.28721     -36.831324     -36.831324     -0.10056042     8.9080949e-06  1.3138338e-07 -8.4938663e-11
      1650   16.5           5.0704497e-08  5.8066603e-06 -3200.5484      2.0776404e-09  4.8541311      4.2038008      217.28721     -36.830135     -36.830135     -0.093502896    8.9122821e-06  1.3052872e-07 -9.5879295e-12
      1660   16.6           4.3370711e-08  6.6163323e-06 -3200.5484      1.7771351e-09  4.8541311      4.2038008      217.28721     -36.828516     -36.828516     -0.085035459    8.9119468e-06  1.3127546e-07 -2.3186877e-10
      1670   16.7           3.3854596e-08  5.160515e-06  -3200.5484      1.3872078e-09  4.8541311      4.2038008      217.28721     -36.827438     -36.827438     -0.079120694    8.909994e-06   1.3099608e-07 -1.4915689e-10
      1680   16.8           2.3709266e-08  4.0145955e-06 -3200.5484      9.7149823e-10  4.8541311      4.2038008      217.28721     -36.826579     -36.826579     -0.074459361    8.9114998e-06  1.3056795e-07  9.8117327e-11
      1690   16.9           1.5273659e-08  2.1655145e-06 -3200.5484      6.2584527e-10  4.8541311      4.2038008      217.28721     -36.825788     -36.825788     -0.070325682    8.9109312e-06  1.3107246e-07 -2.7029423e-11
      1700   17             8.8580437e-09  1.1981557e-06 -3200.5484      3.6296247e-10  4.8541311      4.2038008      217.28721     -36.825234     -36.825234     -0.066860662    8.9100285e-06  1.3126663e-07 -1.5813288e-10
      1710   17.1           4.4470739e-09  7.7438891e-07 -3200.5484      1.8222092e-10  4.8541311      4.2038008      217.28721     -36.824723     -36.824723     -0.064371586    8.9103215e-06  1.309757e-07   2.2726759e-11
      1720   8.6            1.6907125e-14  4.0648834e-07 -3200.5484      6.9277733e-16  4.8541311      4.2038008      217.28721     -36.824522     -36.824522     -0.063131806    8.9103502e-06  1.310938e-07  -1.6994734e-10
      1730   4.325          5.2279445e-16  6.1481054e-08 -3200.5484      2.1421746e-17  4.8541311      4.2038008      217.28721     -36.824528     -36.824528     -0.06315119     8.9105756e-06  1.3100546e-07 -1.4292827e-10
      1740   4.35           3.8179114e-15  4.000097e-08  -3200.5484      1.564407e-16   4.8541311      4.2038008      217.28721     -36.824529     -36.824529     -0.063147574    8.9105214e-06  1.3099551e-07 -9.3032254e-11
      1750   5.823125       7.9508579e-15  3.6977333e-08 -3200.5484      3.2579011e-16  4.8541311      4.2038008      217.28721     -36.824528     -36.824528     -0.063145765    8.9105437e-06  1.3094352e-07 -5.1911917e-11
      1760   15.189993      2.3020469e-14  3.4330224e-08 -3200.5484      9.4327444e-16  4.8541311      4.2038008      217.28721     -36.824528     -36.824528     -0.063144483    8.9105015e-06  1.3095459e-07 -4.5302575e-11
      1770   17.7           6.4380491e-14  2.9759429e-08 -3200.5484      2.6380206e-15  4.8541311      4.2038008      217.28721     -36.824527     -36.824527     -0.063150981    8.9105003e-06  1.3093742e-07 -7.7717436e-11
      1780   17.8           1.1984704e-13  2.5613729e-08 -3200.5484      4.9107882e-15  4.8541311      4.2038008      217.28721     -36.824528     -36.824528     -0.063156455    8.910487e-06   1.3096783e-07 -1.2719222e-10
      1790   17.9           1.8289671e-13  2.2475083e-08 -3200.5484      7.4942778e-15  4.8541311      4.2038008      217.28721     -36.824529     -36.824529     -0.063156022    8.9105843e-06  1.3089682e-07 -8.9481864e-11
      1800   18             2.5197787e-13  1.9770367e-08 -3200.5484      1.0324911e-14  4.8541311      4.2038008      217.28721     -36.824527     -36.824527     -0.063147222    8.9104873e-06  1.3097232e-07 -6.1590241e-11
      1810   18.1           3.1521899e-13  2.227711e-08  -3200.5484      1.2916245e-14  4.8541311      4.2038008      217.28721     -36.824525     -36.824525     -0.063132007    8.9101887e-06  1.3110463e-07  5.5362015e-12
      1820   18.2           3.1583644e-13  1.4256775e-08 -3200.5484      1.2941545e-14  4.8541311      4.2038008      217.28721     -36.824521     -36.824521     -0.063114579    8.9103325e-06  1.3101076e-07 -1.3529594e-10
      1830   18.3           2.8104763e-13  2.0209964e-08 -3200.5484      1.1516057e-14  4.8541311      4.2038008      217.28721     -36.824519     -36.824519     -0.063098433    8.9104447e-06  1.3096398e-07 -2.3534873e-10
      1834   18.34          2.4011086e-13  9.9280359e-09 -3200.5484      9.8386545e-15  4.8541311      4.2038008      217.28721     -36.824517     -36.824517     -0.063091786    8.9104706e-06  1.3084499e-07 -1.1112521e-11
Loop time of 2.13602 on 2 procs for 292 steps with 318 atoms

103.6% CPU use with 1 MPI tasks x 2 OpenMP threads

Minimization stats:
  Stopping criterion = force tolerance
  Energy initial, next-to-last, final = 
     -3200.54837861781  -3200.54837866788  -3200.54837866788
  Force two-norm initial, final = 0.00062526759 9.9280359e-09
  Force max component initial, final = 0.00017806724 8.2601645e-10
  Final line search alpha, max atom move = 0 0
  Iterations, force evaluations = 292 295

MPI task timing breakdown:
Section |  min time  |  avg time  |  max time  |%varavg| %total
---------------------------------------------------------------
Pair    | 2.1109     | 2.1109     | 2.1109     |   0.0 | 98.82
Neigh   | 0          | 0          | 0          |   0.0 |  0.00
Comm    | 0.019214   | 0.019214   | 0.019214   |   0.0 |  0.90
Output  | 0.001095   | 0.001095   | 0.001095   |   0.0 |  0.05
Modify  | 0          | 0          | 0          |   0.0 |  0.00
Other   |            | 0.004792   |            |       |  0.22

Nlocal:            318 ave         318 max         318 min
Histogram: 1 0 0 0 0 0 0 0 0 0
Nghost:           6748 ave        6748 max        6748 min
Histogram: 1 0 0 0 0 0 0 0 0 0
Neighs:              0 ave           0 max           0 min
Histogram: 1 0 0 0 0 0 0 0 0 0
FullNghs:        38930 ave       38930 max       38930 min
Histogram: 1 0 0 0 0 0 0 0 0 0

Total # of neighbors = 38930
Ave neighs/atom = 122.42138
Neighbor list builds = 0
Dangerous builds = 0

fix             3 all box/relax z 0.0 vmax 0.001
min_style       cg
minimize        0.0 1.0e-8 1000 2000
Switching to 'neigh_modify every 1 delay 0 check yes' setting during minimization
WARNING: Energy due to 3 extra global DOFs will be included in minimizer energies
 (src/min.cpp:219)
Per MPI rank memory allocation (min/avg/max) = 5.618 | 5.618 | 5.618 Mbytes
   Step          Time           Temp          Fnorm          PotEng         KinEng           Lx             Ly             Lz            Pxx            Pyy            Pzz            Pxy            Pxz            Pyz      
      1834   1.834          2.4011086e-13  9.9280245e-09 -3200.5484      9.8386545e-15  4.8541311      4.2038008      217.28721     -36.824517     -36.824517     -0.063091786    8.91049e-06    1.308694e-07  -1.6799163e-11
      1840   1.84           2.4011086e-13  1.7776589e-07 -3200.5484      9.8386545e-15  4.8541311      4.2038008      217.28721     -36.794968     -36.794968      5.1571856e-07  8.910486e-06   1.3092844e-07 -9.436616e-11 
      1850   1.85           2.4011086e-13  6.3357336e-08 -3200.5484      9.8386545e-15  4.8541311      4.2038008      217.28721     -36.79496      -36.79496       2.2970538e-06  8.9103717e-06  1.3091652e-07 -6.7031165e-11
      1860   1.86           2.4011086e-13  3.4306135e-08 -3200.5484      9.8386545e-15  4.8541311      4.2038008      217.28721     -36.794959     -36.794959     -1.9582519e-07  8.9100766e-06  1.3127104e-07  2.0921727e-10
      1870   1.87           2.4011086e-13  1.5897611e-08 -3200.5484      9.8386545e-15  4.8541311      4.2038008      217.28721     -36.794976     -36.794976     -3.9757502e-05  8.9103342e-06  1.3136481e-07  1.0955561e-10
      1880   1.88           2.4011086e-13  1.021347e-08  -3200.5484      9.8386545e-15  4.8541311      4.2038008      217.28721     -36.794962     -36.794962     -1.5549505e-06  8.9102631e-06  1.3091167e-07 -2.1388593e-10
      1890   1.89           2.4011086e-13  1.1214184e-08 -3200.5484      9.8386545e-15  4.8541311      4.2038008      217.28721     -36.794962     -36.794962     -3.8859913e-08  8.910812e-06   1.3011141e-07 -4.4838719e-10
      1892   1.892          2.4011086e-13  8.5438392e-09 -3200.5484      9.8386545e-15  4.8541311      4.2038008      217.28721     -36.794963     -36.794963     -2.2772269e-07  8.9105042e-06  1.3010595e-07 -3.1192785e-10
Loop time of 0.854893 on 2 procs for 58 steps with 318 atoms

102.2% CPU use with 1 MPI tasks x 2 OpenMP threads

Minimization stats:
  Stopping criterion = force tolerance
  Energy initial, next-to-last, final = 
     -3200.54837866788  -3200.54837866788  -3200.54837866788
  Force two-norm initial, final = 0.00017460242 8.5670517e-09
  Force max component initial, final = 0.00017460242 2.2098115e-09
  Final line search alpha, max atom move = 1 2.2098115e-09
  Iterations, force evaluations = 58 116

MPI task timing breakdown:
Section |  min time  |  avg time  |  max time  |%varavg| %total
---------------------------------------------------------------
Pair    | 0.8384     | 0.8384     | 0.8384     |   0.0 | 98.07
Neigh   | 0          | 0          | 0          |   0.0 |  0.00
Comm    | 0.005243   | 0.005243   | 0.005243   |   0.0 |  0.61
Output  | 0.00021748 | 0.00021748 | 0.00021748 |   0.0 |  0.03
Modify  | 0          | 0          | 0          |   0.0 |  0.00
Other   |            | 0.01104    |            |       |  1.29

Nlocal:            318 ave         318 max         318 min
Histogram: 1 0 0 0 0 0 0 0 0 0
Nghost:           6748 ave        6748 max        6748 min
Histogram: 1 0 0 0 0 0 0 0 0 0
Neighs:              0 ave           0 max           0 min
Histogram: 1 0 0 0 0 0 0 0 0 0
FullNghs:        38930 ave       38930 max       38930 min
Histogram: 1 0 0 0 0 0 0 0 0 0

Total # of neighbors = 38930
Ave neighs/atom = 122.42138
Neighbor list builds = 0
Dangerous builds = 0
unfix           3
min_style       fire
minimize        0.0 1.0e-8 2000 4000
Switching to 'neigh_modify every 1 delay 0 check yes' setting during minimization
  Parameters for fire:
    dmax  delaystep dtgrow dtshrink alpha0 alphashrink tmax tmin   integrator   halfstepback   abcfire  
     0.1     20      1.1     0.5     0.25     0.99      10  0.02 eulerimplicit      yes          no     
Per MPI rank memory allocation (min/avg/max) = 4.493 | 4.493 | 4.493 Mbytes
   Step          Time           Temp          Fnorm          PotEng         KinEng           Lx             Ly             Lz            Pxx            Pyy            Pzz            Pxy            Pxz            Pyz      
      1892   1.892          0              8.543597e-09  -3200.5484      0              4.8541311      4.2038008      217.28721     -36.794963     -36.794963     -2.2767524e-07  8.9105678e-06  1.30135e-07   -3.0514299e-10
      1893   1.893          1.0437294e-19  8.5293417e-09 -3200.5484      4.2767298e-21  4.8541311      4.2038008      217.28721     -36.794963     -36.794962     -2.2805074e-07  8.9106045e-06  1.3008629e-07 -2.8581643e-10
Loop time of 0.0220403 on 2 procs for 1 steps with 318 atoms

103.5% CPU use with 1 MPI tasks x 2 OpenMP threads

Minimization stats:
  Stopping criterion = force tolerance
  Energy initial, next-to-last, final = 
     -3200.54837866788  -3200.54837866788  -3200.54837866788
  Force two-norm initial, final = 8.543597e-09 8.5293417e-09
  Force max component initial, final = 2.2098281e-09 2.2016028e-09
  Final line search alpha, max atom move = 0 0
  Iterations, force evaluations = 1 2

MPI task timing breakdown:
Section |  min time  |  avg time  |  max time  |%varavg| %total
---------------------------------------------------------------
Pair    | 0.021811   | 0.021811   | 0.021811   |   0.0 | 98.96
Neigh   | 0          | 0          | 0          |   0.0 |  0.00
Comm    | 0.00016318 | 0.00016318 | 0.00016318 |   0.0 |  0.74
Output  | 0          | 0          | 0          |   0.0 |  0.00
Modify  | 0          | 0          | 0          |   0.0 |  0.00
Other   |            | 6.629e-05  |            |       |  0.30

Nlocal:            318 ave         318 max         318 min
Histogram: 1 0 0 0 0 0 0 0 0 0
Nghost:           6748 ave        6748 max        6748 min
Histogram: 1 0 0 0 0 0 0 0 0 0
Neighs:              0 ave           0 max           0 min
Histogram: 1 0 0 0 0 0 0 0 0 0
FullNghs:        38930 ave       38930 max       38930 min
Histogram: 1 0 0 0 0 0 0 0 0 0

Total # of neighbors = 38930
Ave neighs/atom = 122.42138
Neighbor list builds = 0
Dangerous builds = 0

fix             3 all box/relax z 0.0 vmax 0.001
min_style       cg
minimize        0.0 1.0e-8 1000 2000
Switching to 'neigh_modify every 1 delay 0 check yes' setting during minimization
WARNING: Energy due to 3 extra global DOFs will be included in minimizer energies
 (src/min.cpp:219)
Per MPI rank memory allocation (min/avg/max) = 5.618 | 5.618 | 5.618 Mbytes
   Step          Time           Temp          Fnorm          PotEng         KinEng           Lx             Ly             Lz            Pxx            Pyy            Pzz            Pxy            Pxz            Pyz      
      1893   1.893          1.0437294e-19  8.5293592e-09 -3200.5484      4.2767298e-21  4.8541311      4.2038008      217.28721     -36.794963     -36.794962     -2.2834922e-07  8.9105649e-06  1.3006333e-07 -2.513957e-10 
      1895   1.895          1.0437294e-19  7.0986357e-09 -3200.5484      4.2767298e-21  4.8541311      4.2038008      217.28721     -36.794962     -36.794962     -4.9327716e-08  8.9106198e-06  1.3065686e-07 -1.6809192e-11
Loop time of 0.0358731 on 2 procs for 2 steps with 318 atoms

102.4% CPU use with 1 MPI tasks x 2 OpenMP threads

Minimization stats:
  Stopping criterion = force tolerance
  Energy initial, next-to-last, final = 
     -3200.54837866788  -3200.54837866788  -3200.54837866788
  Force two-norm initial, final = 8.5527375e-09 7.0999482e-09
  Force max component initial, final = 2.2015888e-09 1.9906038e-09
  Final line search alpha, max atom move = 1 1.9906038e-09
  Iterations, force evaluations = 2 4

MPI task timing breakdown:
Section |  min time  |  avg time  |  max time  |%varavg| %total
---------------------------------------------------------------
Pair    | 0.035234   | 0.035234   | 0.035234   |   0.0 | 98.22
Neigh   | 0          | 0          | 0          |   0.0 |  0.00
Comm    | 0.00022065 | 0.00022065 | 0.00022065 |   0.0 |  0.62
Output  | 0          | 0          | 0          |   0.0 |  0.00
Modify  | 0          | 0          | 0          |   0.0 |  0.00
Other   |            | 0.0004184  |            |       |  1.17

Nlocal:            318 ave         318 max         318 min
Histogram: 1 0 0 0 0 0 0 0 0 0
Nghost:           6748 ave        6748 max        6748 min
Histogram: 1 0 0 0 0 0 0 0 0 0
Neighs:              0 ave           0 max           0 min
Histogram: 1 0 0 0 0 0 0 0 0 0
FullNghs:        38930 ave       38930 max       38930 min
Histogram: 1 0 0 0 0 0 0 0 0 0

Total # of neighbors = 38930
Ave neighs/atom = 122.42138
Neighbor list builds = 0
Dangerous builds = 0
unfix           3
min_style       fire
minimize        0.0 1.0e-8 2000 4000
Switching to 'neigh_modify every 1 delay 0 check yes' setting during minimization
  Parameters for fire:
    dmax  delaystep dtgrow dtshrink alpha0 alphashrink tmax tmin   integrator   halfstepback   abcfire  
     0.1     20      1.1     0.5     0.25     0.99      10  0.02 eulerimplicit      yes          no     
Per MPI rank memory allocation (min/avg/max) = 4.493 | 4.493 | 4.493 Mbytes
   Step          Time           Temp          Fnorm          PotEng         KinEng           Lx             Ly             Lz            Pxx            Pyy            Pzz            Pxy            Pxz            Pyz      
      1895   1.895          0              7.098209e-09  -3200.5484      0              4.8541311      4.2038008      217.28721     -36.794962     -36.794962     -4.9297869e-08  8.9106569e-06  1.3050614e-07  9.7886461e-11
      1896   1.896          7.2869816e-20  7.0817237e-09 -3200.5484      2.9858747e-21  4.8541311      4.2038008      217.28721     -36.794962     -36.794962     -4.9010628e-08  8.9106107e-06  1.3050179e-07  1.3040663e-10
Loop time of 0.0209156 on 2 procs for 1 steps with 318 atoms

103.4% CPU use with 1 MPI tasks x 2 OpenMP threads

Minimization stats:
  Stopping criterion = force tolerance
  Energy initial, next-to-last, final = 
     -3200.54837866788  -3200.54837866788  -3200.54837866788
  Force two-norm initial, final = 7.098209e-09 7.0817237e-09
  Force max component initial, final = 1.9906098e-09 1.9804008e-09
  Final line search alpha, max atom move = 0 0
  Iterations, force evaluations = 1 2

MPI task timing breakdown:
Section |  min time  |  avg time  |  max time  |%varavg| %total
---------------------------------------------------------------
Pair    | 0.020685   | 0.020685   | 0.020685   |   0.0 | 98.90
Neigh   | 0          | 0          | 0          |   0.0 |  0.00
Comm    | 0.00016858 | 0.00016858 | 0.00016858 |   0.0 |  0.81
Output  | 0          | 0          | 0          |   0.0 |  0.00
Modify  | 0          | 0          | 0          |   0.0 |  0.00
Other   |            | 6.225e-05  |            |       |  0.30

Nlocal:            318 ave         318 max         318 min
Histogram: 1 0 0 0 0 0 0 0 0 0
Nghost:           6748 ave        6748 max        6748 min
Histogram: 1 0 0 0 0 0 0 0 0 0
Neighs:              0 ave           0 max           0 min
Histogram: 1 0 0 0 0 0 0 0 0 0
FullNghs:        38930 ave       38930 max       38930 min
Histogram: 1 0 0 0 0 0 0 0 0 0

Total # of neighbors = 38930
Ave neighs/atom = 122.42138
Neighbor list builds = 0
Dangerous builds = 0

fix             3 all box/relax z 0.0 vmax 0.001
min_style       cg
minimize        0.0 1.0e-8 1000 2000
Switching to 'neigh_modify every 1 delay 0 check yes' setting during minimization
WARNING: Energy due to 3 extra global DOFs will be included in minimizer energies
 (src/min.cpp:219)
Per MPI rank memory allocation (min/avg/max) = 5.618 | 5.618 | 5.618 Mbytes
   Step          Time           Temp          Fnorm          PotEng         KinEng           Lx             Ly             Lz            Pxx            Pyy            Pzz            Pxy            Pxz            Pyz      
      1896   1.896          7.2869816e-20  7.082347e-09  -3200.5484      2.9858747e-21  4.8541311      4.2038008      217.28721     -36.794962     -36.794962     -4.8983027e-08  8.9107009e-06  1.3052427e-07  6.5566879e-11
      1898   1.898          7.2869816e-20  5.5201701e-09 -3200.5484      2.9858747e-21  4.8541311      4.2038008      217.28721     -36.794963     -36.794963     -1.8988626e-07  8.9106273e-06  1.3071092e-07  5.373726e-11 
Loop time of 0.0348624 on 2 procs for 2 steps with 318 atoms

103.6% CPU use with 1 MPI tasks x 2 OpenMP threads

Minimization stats:
  Stopping criterion = force tolerance
  Energy initial, next-to-last, final = 
     -3200.54837866788  -3200.54837866788  -3200.54837866788
  Force two-norm initial, final = 7.0836442e-09 5.5451263e-09
  Force max component initial, final = 1.98056e-09 2.0579612e-09
  Final line search alpha, max atom move = 1 2.0579612e-09
  Iterations, force evaluations = 2 4

MPI task timing breakdown:
Section |  min time  |  avg time  |  max time  |%varavg| %total
---------------------------------------------------------------
Pair    | 0.034217   | 0.034217   | 0.034217   |   0.0 | 98.15
Neigh   | 0          | 0          | 0          |   0.0 |  0.00
Comm    | 0.00023527 | 0.00023527 | 0.00023527 |   0.0 |  0.67
Output  | 0          | 0          | 0          |   0.0 |  0.00
Modify  | 0          | 0          | 0          |   0.0 |  0.00
Other   |            | 0.0004104  |            |       |  1.18

Nlocal:            318 ave         318 max         318 min
Histogram: 1 0 0 0 0 0 0 0 0 0
Nghost:           6748 ave        6748 max        6748 min
Histogram: 1 0 0 0 0 0 0 0 0 0
Neighs:              0 ave           0 max           0 min
Histogram: 1 0 0 0 0 0 0 0 0 0
FullNghs:        38930 ave       38930 max       38930 min
Histogram: 1 0 0 0 0 0 0 0 0 0

Total # of neighbors = 38930
Ave neighs/atom = 122.42138
Neighbor list builds = 0
Dangerous builds = 0
unfix           3
min_style       fire
minimize        0.0 1.0e-8 2000 4000
Switching to 'neigh_modify every 1 delay 0 check yes' setting during minimization
  Parameters for fire:
    dmax  delaystep dtgrow dtshrink alpha0 alphashrink tmax tmin   integrator   halfstepback   abcfire  
     0.1     20      1.1     0.5     0.25     0.99      10  0.02 eulerimplicit      yes          no     
Per MPI rank memory allocation (min/avg/max) = 4.493 | 4.493 | 4.493 Mbytes
   Step          Time           Temp          Fnorm          PotEng         KinEng           Lx             Ly             Lz            Pxx            Pyy            Pzz            Pxy            Pxz            Pyz      
      1898   1.898          0              5.5203475e-09 -3200.5484      0              4.8541311      4.2038008      217.28721     -36.794963     -36.794963     -1.8999538e-07  8.9106236e-06  1.3067405e-07  4.0227725e-11
      1899   1.899          4.1590183e-20  5.5104909e-09 -3200.5484      1.7041771e-21  4.8541311      4.2038008      217.28721     -36.794963     -36.794963     -1.8997933e-07  8.9105805e-06  1.3067694e-07  7.5796817e-11
Loop time of 0.0220603 on 2 procs for 1 steps with 318 atoms

104.1% CPU use with 1 MPI tasks x 2 OpenMP threads

Minimization stats:
  Stopping criterion = force tolerance
  Energy initial, next-to-last, final = 
     -3200.54837866788  -3200.54837866788  -3200.54837866788
  Force two-norm initial, final = 5.5203475e-09 5.5104909e-09
  Force max component initial, final = 2.0583361e-09 2.0520923e-09
  Final line search alpha, max atom move = 0 0
  Iterations, force evaluations = 1 2

MPI task timing breakdown:
Section |  min time  |  avg time  |  max time  |%varavg| %total
---------------------------------------------------------------
Pair    | 0.021801   | 0.021801   | 0.021801   |   0.0 | 98.82
Neigh   | 0          | 0          | 0          |   0.0 |  0.00
Comm    | 0.00018816 | 0.00018816 | 0.00018816 |   0.0 |  0.85
Output  | 0          | 0          | 0          |   0.0 |  0.00
Modify  | 0          | 0          | 0          |   0.0 |  0.00
Other   |            | 7.14e-05   |            |       |  0.32

Nlocal:            318 ave         318 max         318 min
Histogram: 1 0 0 0 0 0 0 0 0 0
Nghost:           6748 ave        6748 max        6748 min
Histogram: 1 0 0 0 0 0 0 0 0 0
Neighs:              0 ave           0 max           0 min
Histogram: 1 0 0 0 0 0 0 0 0 0
FullNghs:        38930 ave       38930 max       38930 min
Histogram: 1 0 0 0 0 0 0 0 0 0

Total # of neighbors = 38930
Ave neighs/atom = 122.42138
Neighbor list builds = 0
Dangerous builds = 0

fix             3 all box/relax z 0.0 vmax 0.001
min_style       cg
minimize        0.0 1.0e-8 1000 2000
Switching to 'neigh_modify every 1 delay 0 check yes' setting during minimization
WARNING: Energy due to 3 extra global DOFs will be included in minimizer energies
 (src/min.cpp:219)
Per MPI rank memory allocation (min/avg/max) = 5.618 | 5.618 | 5.618 Mbytes
   Step          Time           Temp          Fnorm          PotEng         KinEng           Lx             Ly             Lz            Pxx            Pyy            Pzz            Pxy            Pxz            Pyz      
      1899   1.899          4.1590183e-20  5.510791e-09  -3200.5484      1.7041771e-21  4.8541311      4.2038008      217.28721     -36.794963     -36.794963     -1.9005026e-07  8.9105778e-06  1.3063855e-07  6.5376322e-11
      1900   1.9            4.1590183e-20  4.6371518e-09 -3200.5484      1.7041771e-21  4.8541311      4.2038008      217.28721     -36.794955     -36.794955      1.7110635e-05  8.9106099e-06  1.3063582e-07  5.8987625e-11
      1901   1.901          4.1590183e-20  5.6404845e-09 -3200.5484      1.7041771e-21  4.8541311      4.2038008      217.28721     -36.794962     -36.794962     -4.1993934e-08  8.9106323e-06  1.3071943e-07 -2.9411071e-11
Loop time of 0.0339135 on 2 procs for 2 steps with 318 atoms

100.9% CPU use with 1 MPI tasks x 2 OpenMP threads

Minimization stats:
  Stopping criterion = force tolerance
  Energy initial, next-to-last, final = 
     -3200.54837866788  -3200.54837866788  -3200.54837866788
  Force two-norm initial, final = 5.5358326e-09 5.6416817e-09
  Force max component initial, final = 2.052474e-09 2.5097792e-09
  Final line search alpha, max atom move = 1 2.5097792e-09
  Iterations, force evaluations = 2 4

MPI task timing breakdown:
Section |  min time  |  avg time  |  max time  |%varavg| %total
---------------------------------------------------------------
Pair    | 0.033294   | 0.033294   | 0.033294   |   0.0 | 98.17
Neigh   | 0          | 0          | 0          |   0.0 |  0.00
Comm    | 0.00023272 | 0.00023272 | 0.00023272 |   0.0 |  0.69
Output  | 1.6141e-05 | 1.6141e-05 | 1.6141e-05 |   0.0 |  0.05
Modify  | 0          | 0          | 0          |   0.0 |  0.00
Other   |            | 0.0003709  |            |       |  1.09

Nlocal:            318 ave         318 max         318 min
Histogram: 1 0 0 0 0 0 0 0 0 0
Nghost:           6748 ave        6748 max        6748 min
Histogram: 1 0 0 0 0 0 0 0 0 0
Neighs:              0 ave           0 max           0 min
Histogram: 1 0 0 0 0 0 0 0 0 0
FullNghs:        38930 ave       38930 max       38930 min
Histogram: 1 0 0 0 0 0 0 0 0 0

Total # of neighbors = 38930
Ave neighs/atom = 122.42138
Neighbor list builds = 0
Dangerous builds = 0
unfix           3
min_style       fire
minimize        0.0 1.0e-8 2000 4000
Switching to 'neigh_modify every 1 delay 0 check yes' setting during minimization
  Parameters for fire:
    dmax  delaystep dtgrow dtshrink alpha0 alphashrink tmax tmin   integrator   halfstepback   abcfire  
     0.1     20      1.1     0.5     0.25     0.99      10  0.02 eulerimplicit      yes          no     
Per MPI rank memory allocation (min/avg/max) = 4.493 | 4.493 | 4.493 Mbytes
   Step          Time           Temp          Fnorm          PotEng         KinEng           Lx             Ly             Lz            Pxx            Pyy            Pzz            Pxy            Pxz            Pyz      
      1901   1.901          0              5.6404326e-09 -3200.5484      0              4.8541311      4.2038008      217.28721     -36.794962     -36.794962     -4.1946435e-08  8.9103669e-06  1.307719e-07   3.1803071e-11
      1902   1.902          4.3041664e-20  5.6281648e-09 -3200.5484      1.7636522e-21  4.8541311      4.2038008      217.28721     -36.794962     -36.794962     -4.1912094e-08  8.9104137e-06  1.3079505e-07  1.7731892e-11
Loop time of 0.0211043 on 2 procs for 1 steps with 318 atoms

102.6% CPU use with 1 MPI tasks x 2 OpenMP threads

Minimization stats:
  Stopping criterion = force tolerance
  Energy initial, next-to-last, final = 
     -3200.54837866788  -3200.54837866788  -3200.54837866788
  Force two-norm initial, final = 5.6404326e-09 5.6281648e-09
  Force max component initial, final = 2.5095709e-09 2.5018344e-09
  Final line search alpha, max atom move = 0 0
  Iterations, force evaluations = 1 2

MPI task timing breakdown:
Section |  min time  |  avg time  |  max time  |%varavg| %total
---------------------------------------------------------------
Pair    | 0.020855   | 0.020855   | 0.020855   |   0.0 | 98.82
Neigh   | 0          | 0          | 0          |   0.0 |  0.00
Comm    | 0.00018151 | 0.00018151 | 0.00018151 |   0.0 |  0.86
Output  | 0          | 0          | 0          |   0.0 |  0.00
Modify  | 0          | 0          | 0          |   0.0 |  0.00
Other   |            | 6.816e-05  |            |       |  0.32

Nlocal:            318 ave         318 max         318 min
Histogram: 1 0 0 0 0 0 0 0 0 0
Nghost:           6748 ave        6748 max        6748 min
Histogram: 1 0 0 0 0 0 0 0 0 0
Neighs:              0 ave           0 max           0 min
Histogram: 1 0 0 0 0 0 0 0 0 0
FullNghs:        38930 ave       38930 max       38930 min
Histogram: 1 0 0 0 0 0 0 0 0 0

Total # of neighbors = 38930
Ave neighs/atom = 122.42138
Neighbor list builds = 0
Dangerous builds = 0

fix             3 all box/relax z 0.0 vmax 0.001
min_style       cg
minimize        0.0 1.0e-8 1000 2000
Switching to 'neigh_modify every 1 delay 0 check yes' setting during minimization
WARNING: Energy due to 3 extra global DOFs will be included in minimizer energies
 (src/min.cpp:219)
Per MPI rank memory allocation (min/avg/max) = 5.618 | 5.618 | 5.618 Mbytes
   Step          Time           Temp          Fnorm          PotEng         KinEng           Lx             Ly             Lz            Pxx            Pyy            Pzz            Pxy            Pxz            Pyz      
      1902   1.902          4.3041664e-20  5.6280696e-09 -3200.5484      1.7636522e-21  4.8541311      4.2038008      217.28721     -36.794962     -36.794962     -4.193456e-08   8.9103941e-06  1.3085284e-07  8.2391115e-12
      1904   1.904          4.3041664e-20  4.7405342e-09 -3200.5484      1.7636522e-21  4.8541311      4.2038008      217.28721     -36.794963     -36.794963     -1.7486502e-07  8.9104064e-06  1.309146e-07  -2.1091724e-11
Loop time of 0.0358721 on 2 procs for 2 steps with 318 atoms

102.5% CPU use with 1 MPI tasks x 2 OpenMP threads

Minimization stats:
  Stopping criterion = force tolerance
  Energy initial, next-to-last, final = 
     -3200.54837866788  -3200.54837866788  -3200.54837866788
  Force two-norm initial, final = 5.629266e-09 4.7651706e-09
  Force max component initial, final = 2.5015508e-09 2.1396123e-09
  Final line search alpha, max atom move = 1 2.1396123e-09
  Iterations, force evaluations = 2 4

MPI task timing breakdown:
Section |  min time  |  avg time  |  max time  |%varavg| %total
---------------------------------------------------------------
Pair    | 0.035185   | 0.035185   | 0.035185   |   0.0 | 98.08
Neigh   | 0          | 0          | 0          |   0.0 |  0.00
Comm    | 0.00025801 | 0.00025801 | 0.00025801 |   0.0 |  0.72
Output  | 0          | 0          | 0          |   0.0 |  0.00
Modify  | 0          | 0          | 0          |   0.0 |  0.00
Other   |            | 0.0004291  |            |       |  1.20

Nlocal:            318 ave         318 max         318 min
Histogram: 1 0 0 0 0 0 0 0 0 0
Nghost:           6748 ave        6748 max        6748 min
Histogram: 1 0 0 0 0 0 0 0 0 0
Neighs:              0 ave           0 max           0 min
Histogram: 1 0 0 0 0 0 0 0 0 0
FullNghs:        38930 ave       38930 max       38930 min
Histogram: 1 0 0 0 0 0 0 0 0 0

Total # of neighbors = 38930
Ave neighs/atom = 122.42138
Neighbor list builds = 0
Dangerous builds = 0
unfix           3
min_style       fire
minimize        0.0 1.0e-8 2000 4000
Switching to 'neigh_modify every 1 delay 0 check yes' setting during minimization
  Parameters for fire:
    dmax  delaystep dtgrow dtshrink alpha0 alphashrink tmax tmin   integrator   halfstepback   abcfire  
     0.1     20      1.1     0.5     0.25     0.99      10  0.02 eulerimplicit      yes          no     
Per MPI rank memory allocation (min/avg/max) = 4.493 | 4.493 | 4.493 Mbytes
   Step          Time           Temp          Fnorm          PotEng         KinEng           Lx             Ly             Lz            Pxx            Pyy            Pzz            Pxy            Pxz            Pyz      
      1904   1.904          0              4.7404901e-09 -3200.5484      0              4.8541311      4.2038008      217.28721     -36.794963     -36.794963     -1.7506625e-07  8.9104507e-06  1.3094039e-07  3.2760874e-11
      1905   1.905          2.9608194e-20  4.7327074e-09 -3200.5484      1.2132095e-21  4.8541311      4.2038008      217.28721     -36.794963     -36.794963     -1.7491508e-07  8.9104074e-06  1.3096338e-07 -2.5965989e-11
Loop time of 0.0204137 on 2 procs for 1 steps with 318 atoms

101.0% CPU use with 1 MPI tasks x 2 OpenMP threads

Minimization stats:
  Stopping criterion = force tolerance
  Energy initial, next-to-last, final = 
     -3200.54837866788  -3200.54837866788  -3200.54837866788
  Force two-norm initial, final = 4.7404901e-09 4.7327074e-09
  Force max component initial, final = 2.139574e-09 2.1338147e-09
  Final line search alpha, max atom move = 0 0
  Iterations, force evaluations = 1 2

MPI task timing breakdown:
Section |  min time  |  avg time  |  max time  |%varavg| %total
---------------------------------------------------------------
Pair    | 0.020199   | 0.020199   | 0.020199   |   0.0 | 98.95
Neigh   | 0          | 0          | 0          |   0.0 |  0.00
Comm    | 0.00015553 | 0.00015553 | 0.00015553 |   0.0 |  0.76
Output  | 0          | 0          | 0          |   0.0 |  0.00
Modify  | 0          | 0          | 0          |   0.0 |  0.00
Other   |            | 5.879e-05  |            |       |  0.29

Nlocal:            318 ave         318 max         318 min
Histogram: 1 0 0 0 0 0 0 0 0 0
Nghost:           6748 ave        6748 max        6748 min
Histogram: 1 0 0 0 0 0 0 0 0 0
Neighs:              0 ave           0 max           0 min
Histogram: 1 0 0 0 0 0 0 0 0 0
FullNghs:        38930 ave       38930 max       38930 min
Histogram: 1 0 0 0 0 0 0 0 0 0

Total # of neighbors = 38930
Ave neighs/atom = 122.42138
Neighbor list builds = 0
Dangerous builds = 0


write_data      fire_cg_${name}.data
write_data      fire_cg_lmps.data
System init for write_data ...

write_data      bi_minimised.data
System init for write_data ...

print """- step: $(step)
  atoms: $(atoms)
  temp: $(temp)
  press: $(press)
  pe: $(pe)
  ke: $(ke)
  etotal: $(etotal)
  vol: $(vol)
  avecx: $(avecx)
  avecy: $(avecy)
  avecz: $(avecz)
  bvecx: $(bvecx)
  bvecy: $(bvecy)
  bvecz: $(bvecz)
  cvecx: $(cvecx)
  cvecy: $(cvecy)
  cvecz: $(cvecz)
  lx: $(lx)
  ly: $(ly)
  lz: $(lz)
  cella: $(cella)
  cellb: $(cellb)
  cellc: $(cellc)
  cellalpha: $(cellalpha)
  cellbeta: $(cellbeta)
  cellgamma: $(cellgamma)
  pxx: $(pxx)
  pyy: $(pyy)
  pzz: $(pzz)
  pxy: $(pxy)
  pyz: $(pyz)
  pxz: $(pxz)
  xlo: $(xlo)
  xhi: $(xhi)
  ylo: $(ylo)
  yhi: $(yhi)
  zlo: $(zlo)
  zhi: $(zhi)
  xy: $(xy)
  xz: $(xz)
  yz: $(yz)
""" file bi_minimised.data.yaml screen yes universe no
- step: 1905
  atoms: 318
  temp: 2.9608193971499243502e-20
  press: -24.529975215283155165
  pe: -3200.5483786678778415
  ke: 1.2132095443642855427e-21
  etotal: -3200.5483786678778415
  vol: 4433.9192987835695021
  avecx: 4.8541310641848607332
  avecy: 0
  avecz: 0
  bvecx: -2.4270655321457348386
  bvecy: 4.2038008148832508581
  bvecz: 0
  cvecx: 0
  cvecy: 0
  cvecz: 217.28720618746694981
  lx: 4.8541310641848607332
  ly: 4.2038008148832508581
  lz: 217.28720618746694981
  cella: 4.8541310641848607332
  cellb: 4.8541310642114865459
  cellc: 217.28720618746694981
  cellalpha: 90
  cellbeta: 90
  cellgamma: 120.00000000054507154
  pxx: -36.794962740538593948
  pyy: -36.794962730395788242
  pzz: -1.7491508313068943961e-07
  pxy: 8.910407408795760389e-06
  pyz: -2.5965988595802022554e-11
  pxz: 1.3096337994431855034e-07
  xlo: 0.00049104455757122676164
  xhi: 4.8546221087424319407
  ylo: 0.00042525705837334908024
  yhi: 4.2042260719416244541
  zlo: -7.4556084650836007555
  zhi: 209.83159772238334995
  xy: -2.4270655321457348386
  xz: 0
  yz: 0

[GRACE:debug, proc #0]: Data preparation timer: 1.68347e+06 mcs, graph execution time: 2.33806e+07 mcs, data preparation time fraction: 6.72 %
Total wall time: 0:00:28
