
thermo          10
thermo_style    custom step time temp fnorm pe ke lx ly lz pxx pyy pzz pxy pxz pyz

timestep        0.001

min_style       fire
minimize        0.0 1.0e-8 2000 4000

CITE-CITE-CITE-CITE-CITE-CITE-CITE-CITE-CITE-CITE-CITE-CITE-CITE

Your simulation uses code contributions which should be cited:

- Type Label Framework: https://doi.org/10.1021/acs.jpcb.3c08419

@Article{Gissinger24,
 author = {Jacob R. Gissinger, Ilia Nikiforov, Yaser Afshar, Brendon Waters, Moon-ki Choi, Daniel S. Karls, Alexander Stukowski, Wonpil Im, Hendrik Heinz, Axel Kohlmeyer, and Ellad B. Tadmor},
 title = {Type Label Framework for Bonded Force Fields in LAMMPS},
 journal = {J. Phys. Chem. B},
 year =    2024,
 volume =  128,
 number =  13,
 pages =   {3282–-3297}
}

CITE-CITE-CITE-CITE-CITE-CITE-CITE-CITE-CITE-CITE-CITE-CITE-CITE

Switching to 'neigh_modify every 1 delay 0 check yes' setting during minimization
Neighbor list info ...
  update: every = 1 steps, delay = 0 steps, check = yes
  max neighbors/atom: 2000, page size: 100000
  master list distance cutoff = 7.4
  ghost atom cutoff = 7.4
  binsize = 3.7, bins = 2 2 58
  1 neighbor lists, perpetual/occasional/extra = 1 0 0
  (1) pair grace, perpetual
      attributes: full, newton on
      pair build: full/bin/atomonly
      stencil: full/bin/3d
      bin: standard
  Parameters for fire:
    dmax  delaystep dtgrow dtshrink alpha0 alphashrink tmax tmin   integrator   halfstepback   abcfire  
     0.1     20      1.1     0.5     0.25     0.99      10  0.02 eulerimplicit      yes          no     
[GRACE] Atoms padding: new num. of atoms = 339 (incl. 0.885% fake atoms)
[GRACE] Neighbours padding: extending new num. of neighbours = 23474 (incl. 0.988% fake neighbours)
Per MPI rank memory allocation (min/avg/max) = 4.509 | 4.509 | 4.509 Mbytes
   Step          Time           Temp          Fnorm          PotEng         KinEng           Lx             Ly             Lz            Pxx            Pyy            Pzz            Pxy            Pxz            Pyz      
         0   0              0              63.479994     -3253.7412      0              4.8541311      4.2038008      211.91346      201917.7       201917.7       407633.18      1.5290828e-05  3.4433075e-07  9.4500433e-07
        10   0.01           366.21017      45.848787     -3274.0305      15.857687      4.8541311      4.2038008      211.91346      183688.35      183688.35      399448.75      1.4968661e-05  2.2752917e-07  5.2009715e-07
        20   0.02           903.38899      28.268175     -3306.4593      39.118684      4.8541311      4.2038008      211.91346      153403.57      153403.57      385092.97      1.4308961e-05  9.3906914e-08  2.2983087e-07
        30   0.070738431    1749.7625      6.2913432     -3338.2967      75.768477      4.8541311      4.2038008      211.91346      131603.64      131603.64      361152.53      1.2900046e-05 -3.3108868e-08  2.2716824e-07
        40   0.24463636     141.72564      3.3254405     -3342.3136      6.1370245      4.8541311      4.2038008      211.91346      134797.76      134797.76      292233.66      1.2371602e-05 -8.1452485e-08  4.3947346e-08
        50   0.5            18.597822      1.2063516     -3343.5609      0.80532563     4.8541311      4.2038008      211.91346      132033.56      132033.56      289047.62      1.2376738e-05  2.3179403e-08  1.0040643e-08
        60   0.6            7.2529312      0.55688046    -3343.9231      0.31406751     4.8541311      4.2038008      211.91346      130959.03      130959.03      288859.08      1.2347861e-05 -3.7392892e-09  7.5467931e-09
        70   0.7            6.7676036      0.29167297    -3344.1303      0.29305178     4.8541311      4.2038008      211.91346      131092.6       131092.6       288240.89      1.2350326e-05  3.3008656e-08  3.8715425e-09
        80   0.8            8.479204       0.16711574    -3344.2835      0.36716775     4.8541311      4.2038008      211.91346      130989.88      130989.88      288072.87      1.2373222e-05  3.6035332e-08  2.6621536e-09
        90   0.9            5.1439385      0.13638081    -3344.3617      0.22274359     4.8541311      4.2038008      211.91346      130921.46      130921.46      287964.02      1.2394617e-05  4.7103471e-08  1.5462775e-09
       100   1              1.1407028      0.084405239   -3344.3756      0.049394882    4.8541311      4.2038008      211.91346      130933.14      130933.14      287867.09      1.2398276e-05  5.298422e-08   7.9613146e-12
       110   0.55           0.0012326752   0.017279692   -3344.3758      5.3377487e-05  4.8541311      4.2038008      211.91346      130937.83      130937.83      287831.21      1.2398264e-05  5.2716377e-08  3.5745422e-10
       120   0.6            0.0026822982   0.015098618   -3344.3759      0.00011614927  4.8541311      4.2038008      211.91346      130932.29      130932.29      287838.27      1.2398125e-05  5.2605901e-08  3.7501221e-10
       130   1.3            0.0070257204   0.01452521    -3344.3761      0.00030422879  4.8541311      4.2038008      211.91346      130933.59      130933.59      287836.97      1.2397511e-05  5.239374e-08   4.9245402e-10
       140   1.4            0.016383766    0.013463813   -3344.3765      0.00070945227  4.8541311      4.2038008      211.91346      130934.27      130934.27      287837.62      1.239675e-05   5.3063216e-08  6.542223e-10 
       150   1.5            0.02680916     0.017752648   -3344.377       0.0011608942   4.8541311      4.2038008      211.91346      130935.46      130935.46      287838.63      1.2395446e-05  5.3343913e-08  7.1835035e-10
       160   1.6            0.023811769    0.011639179   -3344.3775      0.0010311007   4.8541311      4.2038008      211.91346      130936.11      130936.11      287840.63      1.2394045e-05  5.3703738e-08  2.8949697e-10
       170   1.7            0.025232816    0.0092486314  -3344.378       0.0010926351   4.8541311      4.2038008      211.91346      130937.02      130937.02      287842.83      1.2392733e-05  5.4152241e-08  3.1626161e-10
       180   1.8            0.026181902    0.0097517169  -3344.3783      0.0011337326   4.8541311      4.2038008      211.91346      130937.82      130937.82      287845.43      1.2390886e-05  5.4863326e-08 -2.7227674e-10
       190   1.9            0.026899586    0.0074300852  -3344.3786      0.0011648099   4.8541311      4.2038008      211.91346      130939.02      130939.02      287847.54      1.2389277e-05  5.523174e-08  -2.5141957e-11
       200   2              0.019499492    0.0050850516  -3344.3788      0.00084436989  4.8541311      4.2038008      211.91346      130939.94      130939.94      287850.04      1.2387563e-05  5.5512832e-08  2.4605153e-11
       210   2.1            0.01464462     0.0046523658  -3344.379       0.00063414351  4.8541311      4.2038008      211.91346      130940.66      130940.66      287852.37      1.2385337e-05  5.5826091e-08  8.5373912e-11
       220   2.2            0.0095044009   0.0050352159  -3344.3791      0.00041156098  4.8541311      4.2038008      211.91346      130941.53      130941.53      287854.22      1.2383489e-05  5.6197287e-08  3.8432509e-11
       230   2.3            0.0067205031   0.0025281156  -3344.3792      0.00029101222  4.8541311      4.2038008      211.91346      130942.29      130942.29      287855.74      1.2381407e-05  5.6567876e-08  2.3449464e-10
       240   2.4            0.0045794924   0.0017596228  -3344.3792      0.00019830186  4.8541311      4.2038008      211.91346      130942.85      130942.85      287857.07      1.2379207e-05  5.6831782e-08  2.0937257e-10
       250   2.5            0.0027502217   0.0023679675  -3344.3792      0.00011909051  4.8541311      4.2038008      211.91346      130943.3       130943.3       287858.17      1.2377367e-05  5.6987228e-08  4.9586404e-10
       260   2.6            0.0014500382   0.0011513443  -3344.3792      6.2789769e-05  4.8541311      4.2038008      211.91346      130943.58      130943.58      287859.11      1.237454e-05   5.7537526e-08 -7.7644011e-11
       270   1.35           6.1250225e-08  0.0012187191  -3344.3792      2.6522664e-09  4.8541311      4.2038008      211.91346      130943.83      130943.83      287859.62      1.2372386e-05  5.7974271e-08  2.3600955e-10
       280   0.7            2.3894496e-08  0.00022363125 -3344.3792      1.034683e-09   4.8541311      4.2038008      211.91346      130943.83      130943.83      287859.59      1.2372518e-05  5.8216884e-08  4.4238364e-10
       290   0.725          6.6990786e-08  0.00014873695 -3344.3792      2.900845e-09   4.8541311      4.2038008      211.91346      130943.84      130943.84      287859.59      1.2372639e-05  5.788148e-08   8.7472936e-11
       300   1.2078825      1.3584263e-07  0.00014157951 -3344.3792      5.8822775e-09  4.8541311      4.2038008      211.91346      130943.83      130943.83      287859.6       1.2372613e-05  5.7770266e-08 -1.0654152e-11
       310   3.1            4.5718941e-07  0.00013864341 -3344.3792      1.9797284e-08  4.8541311      4.2038008      211.91346      130943.83      130943.83      287859.61      1.2372521e-05  5.7731984e-08  2.3115589e-10
       320   3.2            1.2139669e-06  0.00012981029 -3344.3792      5.2567377e-08  4.8541311      4.2038008      211.91346      130943.84      130943.84      287859.63      1.2372167e-05  5.7800982e-08 -3.9738148e-11
       330   3.3            2.2951553e-06  0.00011754634 -3344.3792      9.9385155e-08  4.8541311      4.2038008      211.91346      130943.85      130943.85      287859.66      1.2371566e-05  5.7627452e-08  2.9820048e-10
       340   3.4            2.6640226e-06  0.00010502629 -3344.3792      1.153579e-07   4.8541311      4.2038008      211.91346      130943.87      130943.87      287859.69      1.2370792e-05  5.7878987e-08 -1.0987669e-10
       350   3.5            2.8346359e-06  9.3079958e-05 -3344.3792      1.2274582e-07  4.8541311      4.2038008      211.91346      130943.88      130943.88      287859.72      1.2369838e-05  5.7951417e-08  3.1296317e-11
       360   3.6            2.4302029e-06  0.00010191715 -3344.3792      1.0523301e-07  4.8541311      4.2038008      211.91346      130943.89      130943.89      287859.76      1.2368916e-05  5.8109598e-08 -7.8530727e-11
       370   3.7            2.2419706e-06  5.9768179e-05 -3344.3792      9.7082146e-08  4.8541311      4.2038008      211.91346      130943.9       130943.9       287859.79      1.236783e-05   5.8311126e-08 -8.4186305e-12
       380   3.8            1.8726281e-06  8.2803426e-05 -3344.3792      8.1088822e-08  4.8541311      4.2038008      211.91346      130943.92      130943.92      287859.82      1.2366703e-05  5.8405896e-08  1.7938216e-10
       390   3.9            1.5010194e-06  7.2999893e-05 -3344.3792      6.4997366e-08  4.8541311      4.2038008      211.91346      130943.92      130943.92      287859.85      1.236544e-05   5.8456147e-08 -3.6396672e-10
       400   4              1.0879443e-06  3.1190722e-05 -3344.3792      4.7110325e-08  4.8541311      4.2038008      211.91346      130943.93      130943.93      287859.87      1.2364022e-05  5.8473532e-08 -3.7914576e-11
       410   4.1            7.1098203e-07  2.862489e-05  -3344.3792      3.0787049e-08  4.8541311      4.2038008      211.91346      130943.94      130943.94      287859.89      1.2362983e-05  5.8802266e-08  1.9410866e-10
       420   4.2            4.2633453e-07  1.4224591e-05 -3344.3792      1.8461201e-08  4.8541311      4.2038008      211.91346      130943.95      130943.95      287859.9       1.2361097e-05  5.8896366e-08 -2.4125967e-10
       430   4.3            2.1350838e-07  1.9205433e-05 -3344.3792      9.2453717e-09  4.8541311      4.2038008      211.91346      130943.95      130943.95      287859.91      1.2359719e-05  5.8882179e-08 -8.4390024e-11
       440   4.4            8.7232407e-08  2.1571908e-05 -3344.3792      3.7773506e-09  4.8541311      4.2038008      211.91346      130943.95      130943.95      287859.92      1.2358081e-05  5.9210558e-08 -3.9830936e-10
       450   1.125          1.2900563e-12  2.1055915e-06 -3344.3792      5.5862211e-14  4.8541311      4.2038008      211.91346      130943.95      130943.95      287859.92      1.2357962e-05  5.9187992e-08 -4.8292148e-11
       460   1.15           4.0659966e-12  1.22933e-06   -3344.3792      1.7606639e-13  4.8541311      4.2038008      211.91346      130943.95      130943.95      287859.92      1.2358051e-05  5.9235543e-08  2.6470185e-11
       470   1.7203175      9.1904794e-12  1.1830476e-06 -3344.3792      3.979675e-13   4.8541311      4.2038008      211.91346      130943.95      130943.95      287859.92      1.2358167e-05  5.9395887e-08  2.8214296e-10
       480   4.556998       2.8401372e-11  1.1635147e-06 -3344.3792      1.2298404e-12  4.8541311      4.2038008      211.91346      130943.95      130943.95      287859.92      1.2357924e-05  5.9120778e-08 -3.9201379e-11
       490   4.9            7.9105306e-11  1.0909251e-06 -3344.3792      3.4254297e-12  4.8541311      4.2038008      211.91346      130943.95      130943.95      287859.92      1.2357776e-05  5.9264256e-08  3.4141742e-12
       500   5              1.5264034e-10  9.9101788e-07 -3344.3792      6.6096546e-12  4.8541311      4.2038008      211.91346      130943.95      130943.95      287859.92      1.2357373e-05  5.9164547e-08 -9.7077899e-12
       510   5.1            2.0656571e-10  1.3585333e-06 -3344.3792      8.9447391e-12  4.8541311      4.2038008      211.91346      130943.95      130943.95      287859.92      1.2357012e-05  5.9332378e-08  2.3399475e-10
       520   5.2            1.878185e-10   7.4806849e-07 -3344.3792      8.1329447e-12  4.8541311      4.2038008      211.91346      130943.95      130943.95      287859.92      1.2356338e-05  5.9383138e-08 -7.0360964e-11
       530   5.3            1.6909322e-10  9.5790131e-07 -3344.3792      7.3220997e-12  4.8541311      4.2038008      211.91346      130943.95      130943.95      287859.92      1.2355947e-05  5.9382891e-08  2.7189967e-11
       540   5.4            1.5591723e-10  6.0709696e-07 -3344.3792      6.7515509e-12  4.8541311      4.2038008      211.91346      130943.95      130943.95      287859.92      1.2355079e-05  5.9642698e-08  8.8069393e-11
       550   5.5            1.2427034e-10  4.2773671e-07 -3344.3792      5.3811729e-12  4.8541311      4.2038008      211.91346      130943.95      130943.95      287859.92      1.2354478e-05  5.9414565e-08  2.860302e-10 
       560   5.6            1.0867389e-10  6.8213731e-07 -3344.3792      4.705813e-12   4.8541311      4.2038008      211.91346      130943.95      130943.95      287859.92      1.2353923e-05  5.9667132e-08  1.049346e-10 
       570   5.7            7.886263e-11   3.0782245e-07 -3344.3792      3.4149213e-12  4.8541311      4.2038008      211.91346      130943.95      130943.95      287859.92      1.235276e-05   5.9897898e-08 -3.3699611e-10
       580   5.8            5.0104681e-11  4.5236007e-07 -3344.3792      2.1696403e-12  4.8541311      4.2038008      211.91346      130943.96      130943.96      287859.92      1.2352045e-05  5.9765937e-08  2.2521249e-10
       590   5.9            2.4124347e-11  2.8418926e-07 -3344.3792      1.0446361e-12  4.8541311      4.2038008      211.91346      130943.96      130943.96      287859.92      1.2350955e-05  5.9898801e-08 -3.2640401e-11
       600   6              9.9093291e-12  2.464765e-07  -3344.3792      4.2909524e-13  4.8541311      4.2038008      211.91346      130943.96      130943.96      287859.92      1.235048e-05   6.0235282e-08  3.022167e-10 
       610   6.1            4.0631281e-12  1.4734202e-07 -3344.3792      1.7594218e-13  4.8541311      4.2038008      211.91346      130943.96      130943.96      287859.92      1.2349605e-05  6.0305293e-08  4.0188608e-11
       620   6.2            1.6727964e-12  1.546138e-07  -3344.3792      7.2435677e-14  4.8541311      4.2038008      211.91346      130943.96      130943.96      287859.92      1.2349017e-05  6.0163872e-08  1.5565374e-10
       630   3.15           1.4948075e-15  6.1945032e-08 -3344.3792      6.4728375e-17  4.8541311      4.2038008      211.91346      130943.96      130943.96      287859.92      1.2348847e-05  6.0211505e-08 -1.0532542e-10
       640   1.6            4.0274658e-17  1.0159461e-08 -3344.3792      1.7439792e-18  4.8541311      4.2038008      211.91346      130943.96      130943.96      287859.92      1.234894e-05   6.0210107e-08  5.0821932e-11
       641   1.6025         4.99828e-17    9.4627267e-09 -3344.3792      2.1643626e-18  4.8541311      4.2038008      211.91346      130943.96      130943.96      287859.92      1.2348848e-05  6.0351363e-08  1.257488e-10 
Loop time of 4.49577 on 2 procs for 641 steps with 336 atoms

102.6% CPU use with 1 MPI tasks x 2 OpenMP threads

Minimization stats:
  Stopping criterion = force tolerance
  Energy initial, next-to-last, final = 
     -3253.74122699503  -3344.37921809206  -3344.37921809206
  Force two-norm initial, final = 63.479994 9.4627267e-09
  Force max component initial, final = 25.641899 1.5770537e-09
  Final line search alpha, max atom move = 0 0
  Iterations, force evaluations = 641 649

MPI task timing breakdown:
Section |  min time  |  avg time  |  max time  |%varavg| %total
---------------------------------------------------------------
Pair    | 4.471      | 4.471      | 4.471      |   0.0 | 99.45
Neigh   | 0.00098225 | 0.00098225 | 0.00098225 |   0.0 |  0.02
Comm    | 0.015851   | 0.015851   | 0.015851   |   0.0 |  0.35
Output  | 0.0022627  | 0.0022627  | 0.0022627  |   0.0 |  0.05
Modify  | 0          | 0          | 0          |   0.0 |  0.00
Other   |            | 0.0057     |            |       |  0.13

Nlocal:            336 ave         336 max         336 min
Histogram: 1 0 0 0 0 0 0 0 0 0
Nghost:           7193 ave        7193 max        7193 min
Histogram: 1 0 0 0 0 0 0 0 0 0
Neighs:              0 ave           0 max           0 min
Histogram: 1 0 0 0 0 0 0 0 0 0
FullNghs:        44416 ave       44416 max       44416 min
Histogram: 1 0 0 0 0 0 0 0 0 0

Total # of neighbors = 44416
Ave neighs/atom = 132.19048
Neighbor list builds = 1
Dangerous builds = 0

#write_data      fire_${name}.data

fix             3 all box/relax z 0.0 vmax 0.001
min_style       cg
minimize        0.0 1.0e-8 1000 2000
Switching to 'neigh_modify every 1 delay 0 check yes' setting during minimization
WARNING: Energy due to 3 extra global DOFs will be included in minimizer energies
 (src/min.cpp:219)
Per MPI rank memory allocation (min/avg/max) = 5.634 | 5.634 | 5.634 Mbytes
   Step          Time           Temp          Fnorm          PotEng         KinEng           Lx             Ly             Lz            Pxx            Pyy            Pzz            Pxy            Pxz            Pyz      
       641   0.641          4.99828e-17    9.4627343e-09 -3344.3792      2.1643626e-18  4.8541311      4.2038008      211.91346      130943.96      130943.96      287859.92      1.2348915e-05  6.0296407e-08  1.7319769e-10
       650   0.65           4.99828e-17    0.52055386    -3350.847       2.1643626e-18  4.8541311      4.2038008      213.82068      113410.28      113410.28      245223.17      1.1773548e-05  6.9217199e-08 -4.6047228e-11
       660   0.66           4.99828e-17    1.0425991     -3356.8676      2.1643626e-18  4.8541311      4.2038008      215.93981      94986.886      94986.886      201520.01      1.1192112e-05  7.8866257e-08 -5.4506516e-11
       670   0.67           4.99828e-17    1.5145911     -3361.7561      2.1643626e-18  4.8541311      4.2038008      218.05895      77590.715      77590.715      161263.26      1.0666536e-05  8.8807317e-08  1.2580765e-10
       680   0.68           4.99828e-17    1.9449976     -3365.6         2.1643626e-18  4.8541311      4.2038008      220.17808      61146.904      61146.904      124046.11      1.0195508e-05  9.9485025e-08 -2.6338684e-10
       690   0.69           4.99828e-17    2.3398922     -3368.4761      2.1643626e-18  4.8541311      4.2038008      222.29722      45591.238      45591.238      89477.155      9.7765753e-06  1.0929582e-07 -4.4251182e-10
       700   0.7            4.99828e-17    2.7044469     -3370.4512      2.1643626e-18  4.8541311      4.2038008      224.41635      30871.598      30871.598      57212.687      9.4043688e-06  1.1941744e-07 -5.643884e-10 
       710   0.71           4.99828e-17    3.0410329     -3371.5836      2.1643626e-18  4.8541311      4.2038008      226.53548      16944.192      16944.192      26961.63       9.0757768e-06  1.279635e-07  -4.573687e-10 
       720   0.72           4.99828e-17    3.3317725     -3371.9298      2.1643626e-18  4.8541311      4.2038008      228.63181      3904.7023      3904.7023     -1190.9283      8.7873548e-06  1.3689693e-07 -5.5163933e-10
       730   0.73           4.99828e-17    0.44066293    -3372.7035      2.1643626e-18  4.8541311      4.2038008      228.94528     -284.41571     -284.41571      70.496702      8.9189448e-06  1.3185951e-07 -1.0434818e-11
       740   0.74           4.99828e-17    0.15216737    -3372.7259      2.1643626e-18  4.8541311      4.2038008      229.00112     -632.72812     -632.72812     -294.9738       8.9085135e-06  1.1915739e-07 -5.5689546e-11
       750   0.75           4.99828e-17    0.18798207    -3372.7272      2.1643626e-18  4.8541311      4.2038008      228.97467     -559.97437     -559.97437      142.84337      8.8893962e-06  1.1881502e-07 -2.4060054e-11
       760   0.76           4.99828e-17    0.1960045     -3372.7275      2.1643626e-18  4.8541311      4.2038008      228.99131     -643.7807      -643.7807       36.459139      8.8863145e-06  1.1934381e-07 -5.6120185e-11
       770   0.77           4.99828e-17    0.18140293    -3372.73        2.1643626e-18  4.8541311      4.2038008      228.9984      -675.2995      -675.2995      -92.623779      8.903142e-06   1.1953159e-07 -2.5824763e-10
       780   0.78           4.99828e-17    0.1596178     -3372.7303      2.1643626e-18  4.8541311      4.2038008      229.00225     -662.18762     -662.18762     -192.28098      8.8958856e-06  1.187497e-07  -3.5099847e-10
       790   0.79           4.99828e-17    0.066130892   -3372.7319      2.1643626e-18  4.8541311      4.2038008      228.98867     -588.22391     -588.2239       5.6654149      8.9066798e-06  1.1960024e-07 -1.3218897e-10
       800   0.8            4.99828e-17    0.1093031     -3372.733       2.1643626e-18  4.8541311      4.2038008      229.00025     -629.31143     -629.31143     -111.10349      8.901134e-06   1.2044739e-07 -1.8510278e-10
       810   0.81           4.99828e-17    0.054485711   -3372.7344      2.1643626e-18  4.8541311      4.2038008      228.99008     -578.78375     -578.78375      49.079939      8.9044825e-06  1.2222682e-07 -1.9359998e-10
       820   0.82           4.99828e-17    0.033511855   -3372.7346      2.1643626e-18  4.8541311      4.2038008      228.99438     -609.12186     -609.12186     -2.9820161      8.903986e-06   1.2170774e-07  7.5933009e-11
       830   0.83           4.99828e-17    0.05178423    -3372.7346      2.1643626e-18  4.8541311      4.2038008      228.99524     -607.86894     -607.86894     -13.641386      8.9002953e-06  1.2220664e-07 -4.6700672e-10
       840   0.84           4.99828e-17    0.054456431   -3372.7346      2.1643626e-18  4.8541311      4.2038008      228.99511     -607.73692     -607.73692     -20.973917      8.8991288e-06  1.2295668e-07 -3.9906813e-10
       850   0.85           4.99828e-17    0.094940142   -3372.7346      2.1643626e-18  4.8541311      4.2038008      228.99606     -622.63464     -622.63464     -54.443874      8.9016148e-06  1.2405526e-07 -3.923478e-10 
       860   0.86           4.99828e-17    0.10430476    -3372.7347      2.1643626e-18  4.8541311      4.2038008      229.00105     -658.27972     -658.27972     -126.64167      8.9078071e-06  1.247718e-07   3.9273894e-10
       870   0.87           4.99828e-17    0.020566041   -3372.7357      2.1643626e-18  4.8541311      4.2038008      228.99441     -603.00031     -603.00031     -1.2319796      8.9002376e-06  1.2498787e-07 -1.5292234e-10
       880   0.88           4.99828e-17    0.042057735   -3372.7357      2.1643626e-18  4.8541311      4.2038008      228.99614     -622.23858     -622.23858     -27.425986      8.9032403e-06  1.2471623e-07  1.4909792e-10
       890   0.89           4.99828e-17    0.056606592   -3372.7358      2.1643626e-18  4.8541311      4.2038008      229.00089     -647.37708     -647.37708     -69.611105      8.9089168e-06  1.2387918e-07  8.218213e-10 
       900   0.9            4.99828e-17    0.026388539   -3372.736       2.1643626e-18  4.8541311      4.2038008      228.99827     -624.11236     -624.11236     -28.689809      8.8987552e-06  1.24118e-07   -9.3894725e-10
       910   0.91           4.99828e-17    0.029875553   -3372.7361      2.1643626e-18  4.8541311      4.2038008      228.99721     -614.5907      -614.5907      -23.53048       8.8998692e-06  1.2481439e-07  1.5621317e-10
       920   0.92           4.99828e-17    0.03620953    -3372.7363      2.1643626e-18  4.8541311      4.2038008      228.999       -624.07336     -624.07336     -32.94583       8.8998785e-06  1.281383e-07  -5.5417893e-10
       930   0.93           4.99828e-17    0.035399548   -3372.7365      2.1643626e-18  4.8541311      4.2038008      228.99805     -617.11205     -617.11205     -38.322692      8.8997984e-06  1.2889671e-07  6.5879086e-10
       940   0.94           4.99828e-17    0.037173281   -3372.7367      2.1643626e-18  4.8541311      4.2038008      228.99762     -622.15344     -622.15344     -25.113241      8.8971737e-06  1.2803591e-07  4.6307154e-10
       950   0.95           4.99828e-17    0.028761656   -3372.7368      2.1643626e-18  4.8541311      4.2038008      228.99986     -627.82315     -627.82315     -36.70444       8.8974152e-06  1.2812022e-07 -2.2957266e-09
       960   0.96           4.99828e-17    0.019714621   -3372.7369      2.1643626e-18  4.8541311      4.2038008      228.99926     -622.44281     -622.44281     -14.597586      8.8994528e-06  1.2442931e-07  1.8331402e-09
       970   0.97           4.99828e-17    0.015908978   -3372.737       2.1643626e-18  4.8541311      4.2038008      228.99874     -617.78999     -617.78999     -13.987528      8.8968851e-06  1.292206e-07  -2.1836534e-09
       980   0.98           4.99828e-17    0.018225578   -3372.737       2.1643626e-18  4.8541311      4.2038008      228.99753     -610.51963     -610.51963     -5.7355706      8.8970447e-06  1.2807281e-07  2.9654101e-09
       990   0.99           4.99828e-17    0.013464808   -3372.7371      2.1643626e-18  4.8541311      4.2038008      228.99766     -614.92454     -614.92454     -3.1636169      8.8950169e-06  1.3113512e-07 -1.1043793e-09
      1000   1              4.99828e-17    0.015197332   -3372.7371      2.1643626e-18  4.8541311      4.2038008      228.99855     -618.5417      -618.5417      -17.424457      8.8986555e-06  1.2436053e-07  3.7474528e-09
      1010   1.01           4.99828e-17    0.011466481   -3372.7371      2.1643626e-18  4.8541311      4.2038008      228.99833     -617.19616     -617.19616     -13.119634      8.8943668e-06  1.3186332e-07 -3.4961176e-09
      1020   1.02           4.99828e-17    0.0098901504  -3372.7371      2.1643626e-18  4.8541311      4.2038008      228.99786     -614.12603     -614.12603     -6.3755109      8.8980566e-06  1.2514331e-07  2.1548103e-09
      1030   1.03           4.99828e-17    0.0081938814  -3372.7371      2.1643626e-18  4.8541311      4.2038008      228.99768     -613.14604     -613.14604     -5.0960263      8.8963144e-06  1.2800413e-07 -7.4323631e-10
      1040   1.04           4.99828e-17    0.0094969436  -3372.7371      2.1643626e-18  4.8541311      4.2038008      228.99776     -614.0125      -614.0125      -5.5686163      8.896218e-06   1.2864367e-07 -1.8679896e-09
      1050   1.05           4.99828e-17    0.012360026   -3372.7371      2.1643626e-18  4.8541311      4.2038008      228.99761     -615.22159     -615.22159     -5.4429368      8.8979043e-06  1.2741137e-07  3.3046737e-09
      1060   1.06           4.99828e-17    0.0093351421  -3372.7371      2.1643626e-18  4.8541311      4.2038008      228.99761     -615.51991     -615.51991     -4.5332045      8.897322e-06   1.2605155e-07  5.9702544e-10
      1070   1.07           4.99828e-17    0.01148926    -3372.7371      2.1643626e-18  4.8541311      4.2038008      228.9975      -612.75859     -612.75859     -8.1949598      8.8929622e-06  1.3096021e-07 -4.4008951e-09
      1080   1.08           4.99828e-17    0.0093771438  -3372.7371      2.1643626e-18  4.8541311      4.2038008      228.99736     -612.62339     -612.62339     -7.6778193      8.896079e-06   1.3096162e-07 -2.0709628e-09
      1090   1.09           4.99828e-17    0.007505638   -3372.7371      2.1643626e-18  4.8541311      4.2038008      228.99734     -613.33392     -613.33392     -5.6273024      8.8961287e-06  1.2541255e-07  2.5482575e-09
      1100   1.1            4.99828e-17    0.006492874   -3372.7371      2.1643626e-18  4.8541311      4.2038008      228.99724     -613.15481     -613.15481     -4.9139167      8.8966384e-06  1.2689265e-07  9.7837114e-10
      1110   1.11           4.99828e-17    0.0054371369  -3372.7372      2.1643626e-18  4.8541311      4.2038008      228.99726     -612.15825     -612.15825     -4.3870028      8.8961406e-06  1.3020475e-07 -2.648448e-09 
      1120   1.12           4.99828e-17    0.0042895238  -3372.7372      2.1643626e-18  4.8541311      4.2038008      228.99713     -612.27271     -612.27271     -3.5438621      8.8944349e-06  1.2777515e-07 -4.0836699e-10
      1130   1.13           4.99828e-17    0.0040054809  -3372.7372      2.1643626e-18  4.8541311      4.2038008      228.99718     -611.84697     -611.84697     -3.1333119      8.897985e-06   1.2608191e-07  2.0366599e-09
      1140   1.14           4.99828e-17    0.003067357   -3372.7372      2.1643626e-18  4.8541311      4.2038008      228.99707     -611.43843     -611.43843     -2.1193212      8.8957729e-06  1.2721582e-07 -5.7955456e-10
      1150   1.15           4.99828e-17    0.0022509135  -3372.7372      2.1643626e-18  4.8541311      4.2038008      228.99713     -611.98808     -611.98808     -1.4331425      8.8955814e-06  1.2801053e-07 -7.5309957e-10
      1160   1.16           4.99828e-17    0.002403868   -3372.7372      2.1643626e-18  4.8541311      4.2038008      228.99709     -611.54346     -611.54346     -1.4918685      8.8972143e-06  1.2654035e-07  8.2734501e-10
      1170   1.17           4.99828e-17    0.0026252011  -3372.7372      2.1643626e-18  4.8541311      4.2038008      228.99704     -611.00234     -611.00234     -1.6910274      8.8958187e-06  1.268832e-07   5.0396987e-10
      1180   1.18           4.99828e-17    0.0028428121  -3372.7372      2.1643626e-18  4.8541311      4.2038008      228.99708     -611.26088     -611.26088     -1.9933464      8.8954669e-06  1.2893568e-07 -1.1597657e-09
      1190   1.19           4.99828e-17    0.0037249389  -3372.7372      2.1643626e-18  4.8541311      4.2038008      228.9972      -612.0819      -612.0819      -2.5611736      8.8957904e-06  1.2708766e-07 -1.1395354e-09
      1200   1.2            4.99828e-17    0.0033703659  -3372.7372      2.1643626e-18  4.8541311      4.2038008      228.99727     -612.29104     -612.29104     -2.4657568      8.8973946e-06  1.2576135e-07  2.423609e-09 
      1210   1.21           4.99828e-17    0.0029778455  -3372.7372      2.1643626e-18  4.8541311      4.2038008      228.99731     -612.21483     -612.21483     -2.2770305      8.894531e-06   1.2892668e-07  6.0322861e-10
      1220   1.22           4.99828e-17    0.0026631728  -3372.7372      2.1643626e-18  4.8541311      4.2038008      228.99721     -611.9035      -611.9035      -2.0799659      8.894217e-06   1.2881796e-07 -3.7528086e-09
      1230   1.23           4.99828e-17    0.0023780062  -3372.7372      2.1643626e-18  4.8541311      4.2038008      228.99715     -611.34173     -611.34173     -1.7625584      8.8971797e-06  1.2696531e-07  1.4714828e-09
      1240   1.24           4.99828e-17    0.0022353526  -3372.7372      2.1643626e-18  4.8541311      4.2038008      228.99716     -611.62215     -611.62215     -1.5235845      8.8939091e-06  1.2727463e-07  1.4243071e-09
      1250   1.25           4.99828e-17    0.0017651959  -3372.7372      2.1643626e-18  4.8541311      4.2038008      228.99721     -611.87188     -611.87188     -1.2156959      8.8947164e-06  1.284968e-07  -1.9773624e-09
      1260   1.26           4.99828e-17    0.0013723839  -3372.7372      2.1643626e-18  4.8541311      4.2038008      228.99721     -611.80598     -611.80598     -0.93882998     8.8962265e-06  1.279689e-07  -6.8365033e-10
      1270   1.27           4.99828e-17    0.0012943884  -3372.7372      2.1643626e-18  4.8541311      4.2038008      228.9972      -611.62524     -611.62524     -0.89333378     8.89454e-06    1.2689621e-07  1.1304853e-09
      1280   1.28           4.99828e-17    0.0013657721  -3372.7372      2.1643626e-18  4.8541311      4.2038008      228.99716     -611.47427     -611.47427     -0.87985569     8.8953859e-06  1.2757668e-07  5.9035557e-10
      1290   1.29           4.99828e-17    0.001256924   -3372.7372      2.1643626e-18  4.8541311      4.2038008      228.99713     -611.16123     -611.16123     -0.81752768     8.8950268e-06  1.2879815e-07 -1.8351795e-09
      1300   1.3            4.99828e-17    0.0012157234  -3372.7372      2.1643626e-18  4.8541311      4.2038008      228.99712     -611.14996     -611.14996     -0.7737668      8.8944493e-06  1.2773603e-07 -5.7873603e-10
      1310   1.31           4.99828e-17    0.0011505106  -3372.7372      2.1643626e-18  4.8541311      4.2038008      228.99715     -611.24349     -611.24349     -0.7242707      8.8954373e-06  1.2679923e-07  2.074512e-09 
      1320   1.32           4.99828e-17    0.0013220245  -3372.7372      2.1643626e-18  4.8541311      4.2038008      228.99718     -611.5278      -611.5278      -0.86887631     8.894989e-06   1.273433e-07   7.0184119e-11
      1330   1.33           4.99828e-17    0.001268822   -3372.7372      2.1643626e-18  4.8541311      4.2038008      228.99719     -611.57968     -611.57968     -0.83431059     8.8948616e-06  1.2809977e-07 -2.4352128e-09
      1340   1.34           4.99828e-17    0.00099335347 -3372.7372      2.1643626e-18  4.8541311      4.2038008      228.99717     -611.42872     -611.42872     -0.67556881     8.894497e-06   1.2896985e-07 -5.8699145e-10
      1350   1.35           4.99828e-17    0.0008631247  -3372.7372      2.1643626e-18  4.8541311      4.2038008      228.99714     -611.41326     -611.41326     -0.58102415     8.8943949e-06  1.2800137e-07  1.4098588e-09
      1360   1.36           4.99828e-17    0.00093029405 -3372.7372      2.1643626e-18  4.8541311      4.2038008      228.99712     -611.1406      -611.1406      -0.60921518     8.8947713e-06  1.2683422e-07 -6.0203716e-10
      1370   1.37           4.99828e-17    0.0008090252  -3372.7372      2.1643626e-18  4.8541311      4.2038008      228.99709     -611.09018     -611.09018     -0.52962651     8.8941405e-06  1.2773098e-07 -1.1854102e-09
      1380   1.38           4.99828e-17    0.00064219145 -3372.7372      2.1643626e-18  4.8541311      4.2038008      228.99707     -611.0184      -611.0184      -0.42639417     8.893981e-06   1.2880925e-07  5.5750723e-10
      1390   1.39           4.99828e-17    0.00096696587 -3372.7372      2.1643626e-18  4.8541311      4.2038008      228.99708     -611.07132     -611.07132     -0.64701265     8.8960714e-06  1.2688438e-07 -2.0320334e-10
      1400   1.4            4.99828e-17    0.0009769068  -3372.7372      2.1643626e-18  4.8541311      4.2038008      228.99709     -611.21738     -611.21738     -0.65112808     8.8943014e-06  1.2678059e-07 -4.9795057e-12
      1410   1.41           4.99828e-17    0.00091844824 -3372.7372      2.1643626e-18  4.8541311      4.2038008      228.9971      -611.26153     -611.26153     -0.63157108     8.8922442e-06  1.2870483e-07  3.9549122e-10
      1420   1.42           4.99828e-17    0.00092310131 -3372.7372      2.1643626e-18  4.8541311      4.2038008      228.99712     -611.32201     -611.32201     -0.62964176     8.8953269e-06  1.2781469e-07 -1.2322574e-09
      1430   1.43           4.99828e-17    0.00079217872 -3372.7372      2.1643626e-18  4.8541311      4.2038008      228.99712     -611.27318     -611.27318     -0.53723693     8.8956762e-06  1.2762644e-07  3.0216294e-10
      1440   1.44           4.99828e-17    0.00084043241 -3372.7372      2.1643626e-18  4.8541311      4.2038008      228.99712     -611.22856     -611.22856     -0.56810741     8.892696e-06   1.2832953e-07  1.6929152e-09
      1450   1.45           4.99828e-17    0.00076572801 -3372.7372      2.1643626e-18  4.8541311      4.2038008      228.99713     -611.2825      -611.2825      -0.51993997     8.8925312e-06  1.2701576e-07 -1.6878166e-09
      1460   1.46           4.99828e-17    0.00055872508 -3372.7372      2.1643626e-18  4.8541311      4.2038008      228.99711     -611.08859     -611.08859     -0.37021977     8.8933414e-06  1.2743952e-07 -9.8635603e-10
      1470   1.47           4.99828e-17    0.00045275495 -3372.7372      2.1643626e-18  4.8541311      4.2038008      228.9971      -611.04083     -611.04083     -0.2902791      8.8950567e-06  1.2885624e-07  1.5573243e-09
      1480   1.48           4.99828e-17    0.00057170038 -3372.7372      2.1643626e-18  4.8541311      4.2038008      228.9971      -611.09409     -611.09409     -0.3648445      8.8937336e-06  1.2710462e-07 -1.1701767e-09
      1490   1.49           4.99828e-17    0.00047197788 -3372.7372      2.1643626e-18  4.8541311      4.2038008      228.99709     -611.06578     -611.06578     -0.28044677     8.8921195e-06  1.2771897e-07 -4.7739495e-10
      1500   1.5            4.99828e-17    0.00029565659 -3372.7372      2.1643626e-18  4.8541311      4.2038008      228.99708     -611.00393     -611.00393     -0.15525985     8.8938865e-06  1.2810637e-07  5.8939459e-10
      1510   1.51           4.99828e-17    0.00030392393 -3372.7372      2.1643626e-18  4.8541311      4.2038008      228.99708     -610.97744     -610.97744     -0.13261479     8.8944428e-06  1.277484e-07  -5.0466925e-10
      1520   1.52           4.99828e-17    0.00030294299 -3372.7372      2.1643626e-18  4.8541311      4.2038008      228.99707     -610.97862     -610.97862     -0.1160719      8.8930408e-06  1.2819161e-07 -8.2288896e-10
      1530   1.53           4.99828e-17    0.00024964762 -3372.7372      2.1643626e-18  4.8541311      4.2038008      228.99708     -611.00427     -611.00427     -0.086914108    8.8930121e-06  1.2860268e-07  4.106558e-10 
      1540   1.54           4.99828e-17    0.0002736201  -3372.7372      2.1643626e-18  4.8541311      4.2038008      228.99707     -611.01131     -611.01131     -0.084016092    8.8941357e-06  1.2739892e-07 -2.4037477e-10
      1550   1.55           4.99828e-17    0.00030184375 -3372.7372      2.1643626e-18  4.8541311      4.2038008      228.99707     -611.01018     -611.01018     -0.085303905    8.8935782e-06  1.266801e-07  -6.3608255e-10
      1560   1.56           4.99828e-17    0.00029332267 -3372.7372      2.1643626e-18  4.8541311      4.2038008      228.99708     -611.02527     -611.02527     -0.079985429    8.8923632e-06  1.2767105e-07  1.5295387e-11
      1570   1.57           4.99828e-17    0.00032484553 -3372.7372      2.1643626e-18  4.8541311      4.2038008      228.99708     -611.05314     -611.05314     -0.08818384     8.8931392e-06  1.290833e-07   7.2743611e-10
      1580   1.58           4.99828e-17    0.00030698597 -3372.7372      2.1643626e-18  4.8541311      4.2038008      228.99708     -611.06668     -611.06668     -0.083857903    8.8944437e-06  1.2890547e-07  2.5693584e-10
      1590   1.59           4.99828e-17    0.00041230624 -3372.7372      2.1643626e-18  4.8541311      4.2038008      228.99709     -611.09912     -611.09912     -0.11809628     8.895116e-06   1.2694235e-07 -1.5345395e-09
      1600   1.6            4.99828e-17    0.00036261261 -3372.7372      2.1643626e-18  4.8541311      4.2038008      228.99709     -611.09757     -611.09757     -0.10803202     8.8943394e-06  1.2590172e-07 -1.7761776e-09
      1610   1.61           4.99828e-17    0.00035377747 -3372.7372      2.1643626e-18  4.8541311      4.2038008      228.99709     -611.06872     -611.06872     -0.10918605     8.892828e-06   1.2693616e-07 -1.2104981e-11
      1620   1.62           4.99828e-17    0.00030934101 -3372.7372      2.1643626e-18  4.8541311      4.2038008      228.99708     -611.02273     -611.02273     -0.097833299    8.8919955e-06  1.2832302e-07  1.8616643e-09
      1630   1.63           4.99828e-17    0.00037428704 -3372.7372      2.1643626e-18  4.8541311      4.2038008      228.99708     -610.99207     -610.99207     -0.12411938     8.8924683e-06  1.2861588e-07  1.6731806e-09
      1640   1.64           4.99828e-17    0.0003086151  -3372.7372      2.1643626e-18  4.8541311      4.2038008      228.99708     -610.96223     -610.96223     -0.10754734     8.8930299e-06  1.2833983e-07  6.2318767e-10
      1641   1.641          4.99828e-17    0.00030496317 -3372.7372      2.1643626e-18  4.8541311      4.2038008      228.99706     -610.85898     -610.85898      0.11919975     8.8929908e-06  1.2840754e-07  4.689967e-10 
Loop time of 13.4803 on 2 procs for 1000 steps with 336 atoms

103.0% CPU use with 1 MPI tasks x 2 OpenMP threads

Minimization stats:
  Stopping criterion = max iterations
  Energy initial, next-to-last, final = 
     -3344.37921809206  -3372.73715629197  -3372.73715629201
  Force two-norm initial, final = 776.93201 0.00044328982
  Force max component initial, final = 776.93201 0.00032171932
  Final line search alpha, max atom move = 1 0.00032171932
  Iterations, force evaluations = 1000 1921

MPI task timing breakdown:
Section |  min time  |  avg time  |  max time  |%varavg| %total
---------------------------------------------------------------
Pair    | 13.287     | 13.287     | 13.287     |   0.0 | 98.56
Neigh   | 0.018321   | 0.018321   | 0.018321   |   0.0 |  0.14
Comm    | 0.045855   | 0.045855   | 0.045855   |   0.0 |  0.34
Output  | 0.0018336  | 0.0018336  | 0.0018336  |   0.0 |  0.01
Modify  | 0          | 0          | 0          |   0.0 |  0.00
Other   |            | 0.1275     |            |       |  0.95

Nlocal:            336 ave         336 max         336 min
Histogram: 1 0 0 0 0 0 0 0 0 0
Nghost:           7168 ave        7168 max        7168 min
Histogram: 1 0 0 0 0 0 0 0 0 0
Neighs:              0 ave           0 max           0 min
Histogram: 1 0 0 0 0 0 0 0 0 0
FullNghs:        41212 ave       41212 max       41212 min
Histogram: 1 0 0 0 0 0 0 0 0 0

Total # of neighbors = 41212
Ave neighs/atom = 122.65476
Neighbor list builds = 20
Dangerous builds = 0
unfix           3
min_style       fire
minimize        0.0 1.0e-8 2000 4000
Switching to 'neigh_modify every 1 delay 0 check yes' setting during minimization
  Parameters for fire:
    dmax  delaystep dtgrow dtshrink alpha0 alphashrink tmax tmin   integrator   halfstepback   abcfire  
     0.1     20      1.1     0.5     0.25     0.99      10  0.02 eulerimplicit      yes          no     
Per MPI rank memory allocation (min/avg/max) = 4.51 | 4.51 | 4.51 Mbytes
   Step          Time           Temp          Fnorm          PotEng         KinEng           Lx             Ly             Lz            Pxx            Pyy            Pzz            Pxy            Pxz            Pyz      
      1641   1.641          0              0.00030496317 -3372.7372      0              4.8541311      4.2038008      228.99706     -610.85898     -610.85898      0.11919975     8.8930442e-06  1.2840977e-07  2.7936625e-10
      1650   1.65           7.283443e-09   0.00028867015 -3372.7372      3.1538873e-10  4.8541311      4.2038008      228.99706     -610.86019     -610.86019      0.11989765     8.8930138e-06  1.2838487e-07  2.182985e-10 
      1660   1.66           3.0617493e-08  0.00024608134 -3372.7372      1.3258032e-09  4.8541311      4.2038008      228.99706     -610.86427     -610.86427      0.12103797     8.8927666e-06  1.2828877e-07  8.3924231e-11
      1670   3.5797933      7.4219895e-08  0.00017709904 -3372.7372      3.2138809e-09  4.8541311      4.2038008      228.99706     -610.87343     -610.87343      0.12423316     8.8926952e-06  1.2798348e-07  1.9590727e-11
      1680   9.3406611      1.5727151e-07  9.8776946e-05 -3372.7372      6.8101944e-09  4.8541311      4.2038008      228.99706     -610.88652     -610.88652      0.14151319     8.8933718e-06  1.2738709e-07 -2.0585279e-10
      1690   16.9           2.1857676e-07  3.3854676e-05 -3372.7372      9.4648434e-09  4.8541311      4.2038008      228.99706     -610.89167     -610.89167      0.16094471     8.8932652e-06  1.276982e-07  -4.904787e-11 
      1700   17             8.1273834e-08  1.3266342e-05 -3372.7372      3.5193316e-09  4.8541311      4.2038008      228.99706     -610.89089     -610.89089      0.16126228     8.8931636e-06  1.2776982e-07 -1.4961826e-10
      1710   17.1           2.0044889e-08  8.9505795e-06 -3372.7372      8.6798677e-10  4.8541311      4.2038008      228.99706     -610.88529     -610.88529      0.17468193     8.8929243e-06  1.2795704e-07 -6.7709675e-11
      1720   17.2           1.3152367e-08  4.4189277e-06 -3372.7372      5.6952573e-10  4.8541311      4.2038008      228.99706     -610.88808     -610.88808      0.16756633     8.8930019e-06  1.2769728e-07 -8.006218e-11 
      1730   17.3           9.9455861e-09  4.2268735e-06 -3372.7372      4.3066525e-10  4.8541311      4.2038008      228.99706     -610.88763     -610.88763      0.16885439     8.892634e-06   1.2781422e-07  1.5034162e-10
      1740   17.4           8.0879556e-09  2.5626648e-06 -3372.7372      3.5022586e-10  4.8541311      4.2038008      228.99706     -610.88766     -610.88766      0.16949237     8.8924831e-06  1.2803369e-07  2.4286034e-11
      1750   17.5           7.4550714e-09  2.0206852e-06 -3372.7372      3.2282061e-10  4.8541311      4.2038008      228.99706     -610.88797     -610.88797      0.16848143     8.8926213e-06  1.2775882e-07 -6.3103688e-11
      1760   17.6           6.9028447e-09  1.5875972e-06 -3372.7372      2.9890801e-10  4.8541311      4.2038008      228.99706     -610.88857     -610.88857      0.16705337     8.8925109e-06  1.2760521e-07  1.4788812e-11
      1770   17.7           5.1642857e-09  1.3719948e-06 -3372.7372      2.2362467e-10  4.8541311      4.2038008      228.99706     -610.88912     -610.88912      0.16573405     8.8923396e-06  1.2767205e-07 -7.9120105e-11
      1780   17.8           3.4825049e-09  1.1014081e-06 -3372.7372      1.5079995e-10  4.8541311      4.2038008      228.99706     -610.88944     -610.88944      0.16462106     8.8920009e-06  1.2780328e-07 -1.7434218e-10
      1790   17.9           2.2997116e-09  7.7246997e-07 -3372.7372      9.9582455e-11  4.8541311      4.2038008      228.99706     -610.8898      -610.8898       0.16373152     8.8918215e-06  1.2774837e-07 -1.1914648e-10
      1800   18             1.4029486e-09  5.0468143e-07 -3372.7372      6.0750687e-11  4.8541311      4.2038008      228.99706     -610.89006     -610.89006      0.1630993      8.8913998e-06  1.2789735e-07 -1.8033744e-11
      1810   18.1           7.763604e-10   3.9823341e-07 -3372.7372      3.3618074e-11  4.8541311      4.2038008      228.99706     -610.89021     -610.89021      0.1626295      8.891282e-06   1.2772891e-07  1.2642655e-10
      1820   9.1            8.7618122e-15  4.7149704e-07 -3372.7372      3.7940529e-16  4.8541311      4.2038008      228.99706     -610.89034     -610.89034      0.16236247     8.8913562e-06  1.2794839e-07 -4.0987547e-10
      1830   4.575          1.8554633e-15  8.8554955e-08 -3372.7372      8.0345548e-17  4.8541311      4.2038008      228.99706     -610.89035     -610.89035      0.16234704     8.8912867e-06  1.2783019e-07 -1.1966042e-10
      1840   4.6            9.7146844e-15  6.0783228e-08 -3372.7372      4.2066671e-16  4.8541311      4.2038008      228.99706     -610.89034     -610.89034      0.16234531     8.8913207e-06  1.2765962e-07 -4.374733e-11 
      1850   6.7714625      1.940379e-14   5.7080628e-08 -3372.7372      8.4022579e-16  4.8541311      4.2038008      228.99706     -610.89034     -610.89034      0.16234745     8.8913172e-06  1.2766691e-07 -1.4124383e-10
      1860   17.658367      6.0892051e-14  5.5470916e-08 -3372.7372      2.6367567e-15  4.8541311      4.2038008      228.99706     -610.89034     -610.89034      0.16234856     8.8912584e-06  1.2771586e-07 -7.1554531e-11
      1870   18.7           1.7269234e-13  5.2447295e-08 -3372.7372      7.4779495e-15  4.8541311      4.2038008      228.99706     -610.89034     -610.89034      0.16234026     8.8912959e-06  1.2768448e-07 -1.0023725e-10
      1880   18.8           3.4042827e-13  4.9385129e-08 -3372.7372      1.4741275e-14  4.8541311      4.2038008      228.99706     -610.89035     -610.89035      0.16233068     8.8911203e-06  1.2773644e-07 -6.2275947e-11
      1890   18.9           5.5695986e-13  4.5784995e-08 -3372.7372      2.4117559e-14  4.8541311      4.2038008      228.99706     -610.89035     -610.89035      0.16231841     8.8912155e-06  1.2774694e-07 -1.1940347e-10
      1900   19             8.1035836e-13  4.1457096e-08 -3372.7372      3.5090258e-14  4.8541311      4.2038008      228.99706     -610.89036     -610.89036      0.16230518     8.891227e-06   1.2759759e-07  6.8204724e-11
      1910   19.1           1.0839279e-12  3.6397143e-08 -3372.7372      4.6936407e-14  4.8541311      4.2038008      228.99706     -610.89036     -610.89036      0.16228936     8.8910581e-06  1.2771337e-07 -1.7224857e-11
      1920   19.2           1.3543497e-12  3.2464031e-08 -3372.7372      5.8646252e-14  4.8541311      4.2038008      228.99706     -610.89037     -610.89037      0.16227092     8.8910173e-06  1.2770029e-07 -1.3025228e-10
      1930   19.3           1.2100109e-12  4.4547e-08    -3372.7372      5.2396071e-14  4.8541311      4.2038008      228.99706     -610.89038     -610.89038      0.1622546      8.8910253e-06  1.2760132e-07 -2.5600325e-10
      1940   19.4           9.9558755e-13  2.8928331e-08 -3372.7372      4.311108e-14   4.8541311      4.2038008      228.99706     -610.89038     -610.89038      0.16223833     8.890884e-06   1.2769049e-07 -9.9123819e-11
      1950   19.5           7.5164078e-13  2.8804762e-08 -3372.7372      3.2547661e-14  4.8541311      4.2038008      228.99706     -610.89039     -610.89039      0.16222466     8.8908132e-06  1.2760604e-07 -2.1134234e-10
      1960   19.6           5.579526e-13   1.5396971e-08 -3372.7372      2.4160546e-14  4.8541311      4.2038008      228.99706     -610.89039     -610.89039      0.16221206     8.8905709e-06  1.2782117e-07 -9.0368644e-11
      1970   19.7           3.7298008e-13  9.6323704e-09 -3372.7372      1.6150839e-14  4.8541311      4.2038008      228.99706     -610.8904      -610.8904       0.16220086     8.8906139e-06  1.2766278e-07 -1.5058903e-10
Loop time of 2.29632 on 2 procs for 329 steps with 336 atoms

103.9% CPU use with 1 MPI tasks x 2 OpenMP threads

Minimization stats:
  Stopping criterion = force tolerance
  Energy initial, next-to-last, final = 
     -3372.73715629201  -3372.73715630762  -3372.73715630762
  Force two-norm initial, final = 0.00030496317 9.6323704e-09
  Force max component initial, final = 6.3923156e-05 2.2649939e-09
  Final line search alpha, max atom move = 0 0
  Iterations, force evaluations = 329 332

MPI task timing breakdown:
Section |  min time  |  avg time  |  max time  |%varavg| %total
---------------------------------------------------------------
Pair    | 2.2843     | 2.2843     | 2.2843     |   0.0 | 99.48
Neigh   | 0          | 0          | 0          |   0.0 |  0.00
Comm    | 0.0084708  | 0.0084708  | 0.0084708  |   0.0 |  0.37
Output  | 0.00049521 | 0.00049521 | 0.00049521 |   0.0 |  0.02
Modify  | 0          | 0          | 0          |   0.0 |  0.00
Other   |            | 0.003016   |            |       |  0.13

Nlocal:            336 ave         336 max         336 min
Histogram: 1 0 0 0 0 0 0 0 0 0
Nghost:           7168 ave        7168 max        7168 min
Histogram: 1 0 0 0 0 0 0 0 0 0
Neighs:              0 ave           0 max           0 min
Histogram: 1 0 0 0 0 0 0 0 0 0
FullNghs:        41182 ave       41182 max       41182 min
Histogram: 1 0 0 0 0 0 0 0 0 0

Total # of neighbors = 41182
Ave neighs/atom = 122.56548
Neighbor list builds = 0
Dangerous builds = 0

fix             3 all box/relax z 0.0 vmax 0.001
min_style       cg
minimize        0.0 1.0e-8 1000 2000
Switching to 'neigh_modify every 1 delay 0 check yes' setting during minimization
WARNING: Energy due to 3 extra global DOFs will be included in minimizer energies
 (src/min.cpp:219)
Per MPI rank memory allocation (min/avg/max) = 5.635 | 5.635 | 5.635 Mbytes
   Step          Time           Temp          Fnorm          PotEng         KinEng           Lx             Ly             Lz            Pxx            Pyy            Pzz            Pxy            Pxz            Pyz      
      1970   1.97           3.7298008e-13  9.6322988e-09 -3372.7372      1.6150839e-14  4.8541311      4.2038008      228.99706     -610.8904      -610.8904       0.16220086     8.8904606e-06  1.2772824e-07  1.5464305e-11
      1980   1.98           3.7298008e-13  4.1463585e-07 -3372.7372      1.6150839e-14  4.8541311      4.2038008      228.99708     -610.96639     -610.96639      4.4279258e-05  8.8903457e-06  1.2764823e-07 -1.3919777e-10
      1990   1.99           3.7298008e-13  1.4468753e-07 -3372.7372      1.6150839e-14  4.8541311      4.2038008      228.99708     -610.96642     -610.96642     -2.3548557e-05  8.8903615e-06  1.2779226e-07 -1.2247729e-10
      2000   2              3.7298008e-13  8.8210196e-08 -3372.7372      1.6150839e-14  4.8541311      4.2038008      228.99708     -610.96643     -610.96643     -5.9573369e-05  8.8904819e-06  1.2762534e-07 -1.6700497e-10
      2010   2.01           3.7298008e-13  5.5970048e-08 -3372.7372      1.6150839e-14  4.8541311      4.2038008      228.99708     -610.96642     -610.96642      1.3575371e-06  8.8902342e-06  1.2782478e-07 -1.3016662e-10
      2020   2.02           3.7298008e-13  3.1316639e-08 -3372.7372      1.6150839e-14  4.8541311      4.2038008      228.99708     -610.96636     -610.96636      0.00015902853  8.890629e-06   1.2761015e-07 -1.718679e-10 
      2030   2.03           3.7298008e-13  2.0247475e-08 -3372.7372      1.6150839e-14  4.8541311      4.2038008      228.99708     -610.96643     -610.96643      2.6074394e-08  8.8905687e-06  1.2755745e-07 -1.9401279e-10
      2040   2.04           3.7298008e-13  1.2953219e-08 -3372.7372      1.6150839e-14  4.8541311      4.2038008      228.99708     -610.96645     -610.96645     -4.7942494e-05  8.8906487e-06  1.2763375e-07 -7.8406404e-11
      2050   2.05           3.7298008e-13  1.0264363e-08 -3372.7372      1.6150839e-14  4.8541311      4.2038008      228.99708     -610.96642     -610.96642     -7.6999139e-07  8.890585e-06   1.2748383e-07 -2.2382797e-10
      2053   2.053          3.7298008e-13  8.517024e-09  -3372.7372      1.6150839e-14  4.8541311      4.2038008      228.99708     -610.96643     -610.96643      3.2277922e-07  8.8901003e-06  1.2783032e-07  1.0601376e-10
Loop time of 1.17672 on 2 procs for 83 steps with 336 atoms

103.2% CPU use with 1 MPI tasks x 2 OpenMP threads

Minimization stats:
  Stopping criterion = force tolerance
  Energy initial, next-to-last, final = 
     -3372.73715630762  -3372.73715630764  -3372.73715630764
  Force two-norm initial, final = 0.000473071 8.5688908e-09
  Force max component initial, final = 0.000473071 2.764498e-09
  Final line search alpha, max atom move = 1 2.764498e-09
  Iterations, force evaluations = 83 166

MPI task timing breakdown:
Section |  min time  |  avg time  |  max time  |%varavg| %total
---------------------------------------------------------------
Pair    | 1.1612     | 1.1612     | 1.1612     |   0.0 | 98.68
Neigh   | 0          | 0          | 0          |   0.0 |  0.00
Comm    | 0.0040429  | 0.0040429  | 0.0040429  |   0.0 |  0.34
Output  | 0.00016565 | 0.00016565 | 0.00016565 |   0.0 |  0.01
Modify  | 0          | 0          | 0          |   0.0 |  0.00
Other   |            | 0.0113     |            |       |  0.96

Nlocal:            336 ave         336 max         336 min
Histogram: 1 0 0 0 0 0 0 0 0 0
Nghost:           7168 ave        7168 max        7168 min
Histogram: 1 0 0 0 0 0 0 0 0 0
Neighs:              0 ave           0 max           0 min
Histogram: 1 0 0 0 0 0 0 0 0 0
FullNghs:        41182 ave       41182 max       41182 min
Histogram: 1 0 0 0 0 0 0 0 0 0

Total # of neighbors = 41182
Ave neighs/atom = 122.56548
Neighbor list builds = 0
Dangerous builds = 0
unfix           3
min_style       fire
minimize        0.0 1.0e-8 2000 4000
Switching to 'neigh_modify every 1 delay 0 check yes' setting during minimization
  Parameters for fire:
    dmax  delaystep dtgrow dtshrink alpha0 alphashrink tmax tmin   integrator   halfstepback   abcfire  
     0.1     20      1.1     0.5     0.25     0.99      10  0.02 eulerimplicit      yes          no     
Per MPI rank memory allocation (min/avg/max) = 4.51 | 4.51 | 4.51 Mbytes
   Step          Time           Temp          Fnorm          PotEng         KinEng           Lx             Ly             Lz            Pxx            Pyy            Pzz            Pxy            Pxz            Pyz      
      2053   2.053          0              8.5171426e-09 -3372.7372      0              4.8541311      4.2038008      228.99708     -610.96643     -610.96643      3.228458e-07   8.8904252e-06  1.2769199e-07  6.6463202e-11
      2054   2.054          7.8325124e-20  8.5038613e-09 -3372.7372      3.3916461e-21  4.8541311      4.2038008      228.99708     -610.96643     -610.96643      3.2345303e-07  8.8903935e-06  1.2773742e-07  4.9105115e-11
Loop time of 0.0203437 on 2 procs for 1 steps with 336 atoms

103.5% CPU use with 1 MPI tasks x 2 OpenMP threads

Minimization stats:
  Stopping criterion = force tolerance
  Energy initial, next-to-last, final = 
     -3372.73715630764  -3372.73715630764  -3372.73715630764
  Force two-norm initial, final = 8.5171426e-09 8.5038613e-09
  Force max component initial, final = 2.7644851e-09 2.7606941e-09
  Final line search alpha, max atom move = 0 0
  Iterations, force evaluations = 1 2

MPI task timing breakdown:
Section |  min time  |  avg time  |  max time  |%varavg| %total
---------------------------------------------------------------
Pair    | 0.020244   | 0.020244   | 0.020244   |   0.0 | 99.51
Neigh   | 0          | 0          | 0          |   0.0 |  0.00
Comm    | 6.1985e-05 | 6.1985e-05 | 6.1985e-05 |   0.0 |  0.30
Output  | 0          | 0          | 0          |   0.0 |  0.00
Modify  | 0          | 0          | 0          |   0.0 |  0.00
Other   |            | 3.738e-05  |            |       |  0.18

Nlocal:            336 ave         336 max         336 min
Histogram: 1 0 0 0 0 0 0 0 0 0
Nghost:           7168 ave        7168 max        7168 min
Histogram: 1 0 0 0 0 0 0 0 0 0
Neighs:              0 ave           0 max           0 min
Histogram: 1 0 0 0 0 0 0 0 0 0
FullNghs:        41182 ave       41182 max       41182 min
Histogram: 1 0 0 0 0 0 0 0 0 0

Total # of neighbors = 41182
Ave neighs/atom = 122.56548
Neighbor list builds = 0
Dangerous builds = 0

fix             3 all box/relax z 0.0 vmax 0.001
min_style       cg
minimize        0.0 1.0e-8 1000 2000
Switching to 'neigh_modify every 1 delay 0 check yes' setting during minimization
WARNING: Energy due to 3 extra global DOFs will be included in minimizer energies
 (src/min.cpp:219)
Per MPI rank memory allocation (min/avg/max) = 5.635 | 5.635 | 5.635 Mbytes
   Step          Time           Temp          Fnorm          PotEng         KinEng           Lx             Ly             Lz            Pxx            Pyy            Pzz            Pxy            Pxz            Pyz      
      2054   2.054          7.8325124e-20  8.504109e-09  -3372.7372      3.3916461e-21  4.8541311      4.2038008      228.99708     -610.96643     -610.96643      3.2365082e-07  8.8905349e-06  1.2779009e-07  9.3746994e-11
      2056   2.056          7.8325124e-20  5.317243e-09  -3372.7372      3.3916461e-21  4.8541311      4.2038008      228.99708     -610.96643     -610.96643      2.1080788e-08  8.8906016e-06  1.2768546e-07  1.1051506e-10
Loop time of 0.0351385 on 2 procs for 2 steps with 336 atoms

104.4% CPU use with 1 MPI tasks x 2 OpenMP threads

Minimization stats:
  Stopping criterion = force tolerance
  Energy initial, next-to-last, final = 
     -3372.73715630764  -3372.73715630764  -3372.73715630764
  Force two-norm initial, final = 8.5563378e-09 5.3175985e-09
  Force max component initial, final = 2.7607402e-09 1.5832884e-09
  Final line search alpha, max atom move = 1 1.5832884e-09
  Iterations, force evaluations = 2 4

MPI task timing breakdown:
Section |  min time  |  avg time  |  max time  |%varavg| %total
---------------------------------------------------------------
Pair    | 0.034774   | 0.034774   | 0.034774   |   0.0 | 98.96
Neigh   | 0          | 0          | 0          |   0.0 |  0.00
Comm    | 9.4511e-05 | 9.4511e-05 | 9.4511e-05 |   0.0 |  0.27
Output  | 0          | 0          | 0          |   0.0 |  0.00
Modify  | 0          | 0          | 0          |   0.0 |  0.00
Other   |            | 0.0002702  |            |       |  0.77

Nlocal:            336 ave         336 max         336 min
Histogram: 1 0 0 0 0 0 0 0 0 0
Nghost:           7168 ave        7168 max        7168 min
Histogram: 1 0 0 0 0 0 0 0 0 0
Neighs:              0 ave           0 max           0 min
Histogram: 1 0 0 0 0 0 0 0 0 0
FullNghs:        41182 ave       41182 max       41182 min
Histogram: 1 0 0 0 0 0 0 0 0 0

Total # of neighbors = 41182
Ave neighs/atom = 122.56548
Neighbor list builds = 0
Dangerous builds = 0
unfix           3
min_style       fire
minimize        0.0 1.0e-8 2000 4000
Switching to 'neigh_modify every 1 delay 0 check yes' setting during minimization
  Parameters for fire:
    dmax  delaystep dtgrow dtshrink alpha0 alphashrink tmax tmin   integrator   halfstepback   abcfire  
     0.1     20      1.1     0.5     0.25     0.99      10  0.02 eulerimplicit      yes          no     
Per MPI rank memory allocation (min/avg/max) = 4.51 | 4.51 | 4.51 Mbytes
   Step          Time           Temp          Fnorm          PotEng         KinEng           Lx             Ly             Lz            Pxx            Pyy            Pzz            Pxy            Pxz            Pyz      
      2056   2.056          0              5.3172466e-09 -3372.7372      0              4.8541311      4.2038008      228.99708     -610.96643     -610.96643      2.1007549e-08  8.890622e-06   1.2769351e-07  1.3394467e-10
      2057   2.057          3.2040087e-20  5.3122256e-09 -3372.7372      1.3874046e-21  4.8541311      4.2038008      228.99708     -610.96643     -610.96643      2.0483609e-08  8.8905606e-06  1.2763527e-07  1.2358121e-10
Loop time of 0.0204632 on 2 procs for 1 steps with 336 atoms

101.6% CPU use with 1 MPI tasks x 2 OpenMP threads

Minimization stats:
  Stopping criterion = force tolerance
  Energy initial, next-to-last, final = 
     -3372.73715630764  -3372.73715630764  -3372.73715630764
  Force two-norm initial, final = 5.3172466e-09 5.3122256e-09
  Force max component initial, final = 1.583285e-09 1.5815089e-09
  Final line search alpha, max atom move = 0 0
  Iterations, force evaluations = 1 2

MPI task timing breakdown:
Section |  min time  |  avg time  |  max time  |%varavg| %total
---------------------------------------------------------------
Pair    | 0.020367   | 0.020367   | 0.020367   |   0.0 | 99.53
Neigh   | 0          | 0          | 0          |   0.0 |  0.00
Comm    | 5.9887e-05 | 5.9887e-05 | 5.9887e-05 |   0.0 |  0.29
Output  | 0          | 0          | 0          |   0.0 |  0.00
Modify  | 0          | 0          | 0          |   0.0 |  0.00
Other   |            | 3.673e-05  |            |       |  0.18

Nlocal:            336 ave         336 max         336 min
Histogram: 1 0 0 0 0 0 0 0 0 0
Nghost:           7168 ave        7168 max        7168 min
Histogram: 1 0 0 0 0 0 0 0 0 0
Neighs:              0 ave           0 max           0 min
Histogram: 1 0 0 0 0 0 0 0 0 0
FullNghs:        41182 ave       41182 max       41182 min
Histogram: 1 0 0 0 0 0 0 0 0 0

Total # of neighbors = 41182
Ave neighs/atom = 122.56548
Neighbor list builds = 0
Dangerous builds = 0

fix             3 all box/relax z 0.0 vmax 0.001
min_style       cg
minimize        0.0 1.0e-8 1000 2000
Switching to 'neigh_modify every 1 delay 0 check yes' setting during minimization
WARNING: Energy due to 3 extra global DOFs will be included in minimizer energies
 (src/min.cpp:219)
Per MPI rank memory allocation (min/avg/max) = 5.635 | 5.635 | 5.635 Mbytes
   Step          Time           Temp          Fnorm          PotEng         KinEng           Lx             Ly             Lz            Pxx            Pyy            Pzz            Pxy            Pxz            Pyz      
      2057   2.057          3.2040087e-20  5.3121258e-09 -3372.7372      1.3874046e-21  4.8541311      4.2038008      228.99708     -610.96643     -610.96643      2.0622321e-08  8.8905238e-06  1.2766348e-07  1.0352995e-10
      2059   2.059          3.2040087e-20  5.5130595e-09 -3372.7372      1.3874046e-21  4.8541311      4.2038008      228.99708     -610.96643     -610.96643      2.4321101e-07  8.8903605e-06  1.276627e-07  -5.7365433e-11
Loop time of 0.0345853 on 2 procs for 2 steps with 336 atoms

105.8% CPU use with 1 MPI tasks x 2 OpenMP threads

Minimization stats:
  Stopping criterion = force tolerance
  Energy initial, next-to-last, final = 
     -3372.73715630764  -3372.73715630764  -3372.73715630764
  Force two-norm initial, final = 5.3124663e-09 5.5585064e-09
  Force max component initial, final = 1.5814905e-09 1.8669428e-09
  Final line search alpha, max atom move = 1 1.8669428e-09
  Iterations, force evaluations = 2 4

MPI task timing breakdown:
Section |  min time  |  avg time  |  max time  |%varavg| %total
---------------------------------------------------------------
Pair    | 0.034223   | 0.034223   | 0.034223   |   0.0 | 98.95
Neigh   | 0          | 0          | 0          |   0.0 |  0.00
Comm    | 9.4333e-05 | 9.4333e-05 | 9.4333e-05 |   0.0 |  0.27
Output  | 0          | 0          | 0          |   0.0 |  0.00
Modify  | 0          | 0          | 0          |   0.0 |  0.00
Other   |            | 0.0002676  |            |       |  0.77

Nlocal:            336 ave         336 max         336 min
Histogram: 1 0 0 0 0 0 0 0 0 0
Nghost:           7168 ave        7168 max        7168 min
Histogram: 1 0 0 0 0 0 0 0 0 0
Neighs:              0 ave           0 max           0 min
Histogram: 1 0 0 0 0 0 0 0 0 0
FullNghs:        41182 ave       41182 max       41182 min
Histogram: 1 0 0 0 0 0 0 0 0 0

Total # of neighbors = 41182
Ave neighs/atom = 122.56548
Neighbor list builds = 0
Dangerous builds = 0
unfix           3
min_style       fire
minimize        0.0 1.0e-8 2000 4000
Switching to 'neigh_modify every 1 delay 0 check yes' setting during minimization
  Parameters for fire:
    dmax  delaystep dtgrow dtshrink alpha0 alphashrink tmax tmin   integrator   halfstepback   abcfire  
     0.1     20      1.1     0.5     0.25     0.99      10  0.02 eulerimplicit      yes          no     
Per MPI rank memory allocation (min/avg/max) = 4.51 | 4.51 | 4.51 Mbytes
   Step          Time           Temp          Fnorm          PotEng         KinEng           Lx             Ly             Lz            Pxx            Pyy            Pzz            Pxy            Pxz            Pyz      
      2059   2.059          0              5.5128398e-09 -3372.7372      0              4.8541311      4.2038008      228.99708     -610.96643     -610.96643      2.4300104e-07  8.8903702e-06  1.2774907e-07  4.6821156e-11
      2060   2.06           3.0970007e-20  5.5057131e-09 -3372.7372      1.3410678e-21  4.8541311      4.2038008      228.99708     -610.96643     -610.96643      2.4360081e-07  8.8903719e-06  1.277736e-07   5.7460598e-11
Loop time of 0.0204272 on 2 procs for 1 steps with 336 atoms

107.4% CPU use with 1 MPI tasks x 2 OpenMP threads

Minimization stats:
  Stopping criterion = force tolerance
  Energy initial, next-to-last, final = 
     -3372.73715630764  -3372.73715630764  -3372.73715630764
  Force two-norm initial, final = 5.5128398e-09 5.5057131e-09
  Force max component initial, final = 1.8669049e-09 1.8641779e-09
  Final line search alpha, max atom move = 0 0
  Iterations, force evaluations = 1 2

MPI task timing breakdown:
Section |  min time  |  avg time  |  max time  |%varavg| %total
---------------------------------------------------------------
Pair    | 0.020326   | 0.020326   | 0.020326   |   0.0 | 99.51
Neigh   | 0          | 0          | 0          |   0.0 |  0.00
Comm    | 5.9687e-05 | 5.9687e-05 | 5.9687e-05 |   0.0 |  0.29
Output  | 0          | 0          | 0          |   0.0 |  0.00
Modify  | 0          | 0          | 0          |   0.0 |  0.00
Other   |            | 4.103e-05  |            |       |  0.20

Nlocal:            336 ave         336 max         336 min
Histogram: 1 0 0 0 0 0 0 0 0 0
Nghost:           7168 ave        7168 max        7168 min
Histogram: 1 0 0 0 0 0 0 0 0 0
Neighs:              0 ave           0 max           0 min
Histogram: 1 0 0 0 0 0 0 0 0 0
FullNghs:        41182 ave       41182 max       41182 min
Histogram: 1 0 0 0 0 0 0 0 0 0

Total # of neighbors = 41182
Ave neighs/atom = 122.56548
Neighbor list builds = 0
Dangerous builds = 0

fix             3 all box/relax z 0.0 vmax 0.001
min_style       cg
minimize        0.0 1.0e-8 1000 2000
Switching to 'neigh_modify every 1 delay 0 check yes' setting during minimization
WARNING: Energy due to 3 extra global DOFs will be included in minimizer energies
 (src/min.cpp:219)
Per MPI rank memory allocation (min/avg/max) = 5.635 | 5.635 | 5.635 Mbytes
   Step          Time           Temp          Fnorm          PotEng         KinEng           Lx             Ly             Lz            Pxx            Pyy            Pzz            Pxy            Pxz            Pyz      
      2060   2.06           3.0970007e-20  5.5057959e-09 -3372.7372      1.3410678e-21  4.8541311      4.2038008      228.99708     -610.96643     -610.96643      2.4377698e-07  8.8903459e-06  1.2772396e-07  8.5981534e-11
      2062   2.062          3.0970007e-20  4.090181e-09  -3372.7372      1.3410678e-21  4.8541311      4.2038008      228.99708     -610.96643     -610.96643      1.5703283e-08  8.8904315e-06  1.2764467e-07  3.437358e-11 
Loop time of 0.0343295 on 2 procs for 2 steps with 336 atoms

104.6% CPU use with 1 MPI tasks x 2 OpenMP threads

Minimization stats:
  Stopping criterion = force tolerance
  Energy initial, next-to-last, final = 
     -3372.73715630764  -3372.73715630764  -3372.73715630763
  Force two-norm initial, final = 5.5515134e-09 4.0904374e-09
  Force max component initial, final = 1.8638182e-09 1.2147885e-09
  Final line search alpha, max atom move = 1 1.2147885e-09
  Iterations, force evaluations = 2 4

MPI task timing breakdown:
Section |  min time  |  avg time  |  max time  |%varavg| %total
---------------------------------------------------------------
Pair    | 0.033893   | 0.033893   | 0.033893   |   0.0 | 98.73
Neigh   | 0          | 0          | 0          |   0.0 |  0.00
Comm    | 0.00014514 | 0.00014514 | 0.00014514 |   0.0 |  0.42
Output  | 0          | 0          | 0          |   0.0 |  0.00
Modify  | 0          | 0          | 0          |   0.0 |  0.00
Other   |            | 0.0002912  |            |       |  0.85

Nlocal:            336 ave         336 max         336 min
Histogram: 1 0 0 0 0 0 0 0 0 0
Nghost:           7168 ave        7168 max        7168 min
Histogram: 1 0 0 0 0 0 0 0 0 0
Neighs:              0 ave           0 max           0 min
Histogram: 1 0 0 0 0 0 0 0 0 0
FullNghs:        41182 ave       41182 max       41182 min
Histogram: 1 0 0 0 0 0 0 0 0 0

Total # of neighbors = 41182
Ave neighs/atom = 122.56548
Neighbor list builds = 0
Dangerous builds = 0
unfix           3
min_style       fire
minimize        0.0 1.0e-8 2000 4000
Switching to 'neigh_modify every 1 delay 0 check yes' setting during minimization
  Parameters for fire:
    dmax  delaystep dtgrow dtshrink alpha0 alphashrink tmax tmin   integrator   halfstepback   abcfire  
     0.1     20      1.1     0.5     0.25     0.99      10  0.02 eulerimplicit      yes          no     
Per MPI rank memory allocation (min/avg/max) = 4.51 | 4.51 | 4.51 Mbytes
   Step          Time           Temp          Fnorm          PotEng         KinEng           Lx             Ly             Lz            Pxx            Pyy            Pzz            Pxy            Pxz            Pyz      
      2062   2.062          0              4.0899518e-09 -3372.7372      0              4.8541311      4.2038008      228.99708     -610.96643     -610.96643      1.5689427e-08  8.8902488e-06  1.2767947e-07 -1.7986176e-12
      2063   2.063          1.8860762e-20  4.0865246e-09 -3372.7372      8.1671153e-22  4.8541311      4.2038008      228.99708     -610.96643     -610.96643      1.5569747e-08  8.8901448e-06  1.2766504e-07 -2.3258314e-11
Loop time of 0.0204521 on 2 procs for 1 steps with 336 atoms

104.3% CPU use with 1 MPI tasks x 2 OpenMP threads

Minimization stats:
  Stopping criterion = force tolerance
  Energy initial, next-to-last, final = 
     -3372.73715630764  -3372.73715630764  -3372.73715630763
  Force two-norm initial, final = 4.0899518e-09 4.0865246e-09
  Force max component initial, final = 1.2147914e-09 1.2134387e-09
  Final line search alpha, max atom move = 0 0
  Iterations, force evaluations = 1 2

MPI task timing breakdown:
Section |  min time  |  avg time  |  max time  |%varavg| %total
---------------------------------------------------------------
Pair    | 0.02034    | 0.02034    | 0.02034    |   0.0 | 99.45
Neigh   | 0          | 0          | 0          |   0.0 |  0.00
Comm    | 7.5304e-05 | 7.5304e-05 | 7.5304e-05 |   0.0 |  0.37
Output  | 0          | 0          | 0          |   0.0 |  0.00
Modify  | 0          | 0          | 0          |   0.0 |  0.00
Other   |            | 3.712e-05  |            |       |  0.18

Nlocal:            336 ave         336 max         336 min
Histogram: 1 0 0 0 0 0 0 0 0 0
Nghost:           7168 ave        7168 max        7168 min
Histogram: 1 0 0 0 0 0 0 0 0 0
Neighs:              0 ave           0 max           0 min
Histogram: 1 0 0 0 0 0 0 0 0 0
FullNghs:        41182 ave       41182 max       41182 min
Histogram: 1 0 0 0 0 0 0 0 0 0

Total # of neighbors = 41182
Ave neighs/atom = 122.56548
Neighbor list builds = 0
Dangerous builds = 0

fix             3 all box/relax z 0.0 vmax 0.001
min_style       cg
minimize        0.0 1.0e-8 1000 2000
Switching to 'neigh_modify every 1 delay 0 check yes' setting during minimization
WARNING: Energy due to 3 extra global DOFs will be included in minimizer energies
 (src/min.cpp:219)
Per MPI rank memory allocation (min/avg/max) = 5.635 | 5.635 | 5.635 Mbytes
   Step          Time           Temp          Fnorm          PotEng         KinEng           Lx             Ly             Lz            Pxx            Pyy            Pzz            Pxy            Pxz            Pyz      
      2063   2.063          1.8860762e-20  4.0871469e-09 -3372.7372      8.1671153e-22  4.8541311      4.2038008      228.99708     -610.96643     -610.96643      1.5304047e-08  8.8900381e-06  1.2763493e-07 -5.1988613e-11
      2065   2.065          1.8860762e-20  4.5498333e-09 -3372.7372      8.1671153e-22  4.8541311      4.2038008      228.99708     -610.96643     -610.96643      2.218662e-07   8.8902029e-06  1.2775175e-07  1.7396153e-11
Loop time of 0.0342951 on 2 procs for 2 steps with 336 atoms

104.1% CPU use with 1 MPI tasks x 2 OpenMP threads

Minimization stats:
  Stopping criterion = force tolerance
  Energy initial, next-to-last, final = 
     -3372.73715630763  -3372.73715630764  -3372.73715630764
  Force two-norm initial, final = 4.0873906e-09 4.5956184e-09
  Force max component initial, final = 1.2134578e-09 1.5603738e-09
  Final line search alpha, max atom move = 1 1.5603738e-09
  Iterations, force evaluations = 2 4

MPI task timing breakdown:
Section |  min time  |  avg time  |  max time  |%varavg| %total
---------------------------------------------------------------
Pair    | 0.033879   | 0.033879   | 0.033879   |   0.0 | 98.79
Neigh   | 0          | 0          | 0          |   0.0 |  0.00
Comm    | 0.00012682 | 0.00012682 | 0.00012682 |   0.0 |  0.37
Output  | 0          | 0          | 0          |   0.0 |  0.00
Modify  | 0          | 0          | 0          |   0.0 |  0.00
Other   |            | 0.0002896  |            |       |  0.84

Nlocal:            336 ave         336 max         336 min
Histogram: 1 0 0 0 0 0 0 0 0 0
Nghost:           7168 ave        7168 max        7168 min
Histogram: 1 0 0 0 0 0 0 0 0 0
Neighs:              0 ave           0 max           0 min
Histogram: 1 0 0 0 0 0 0 0 0 0
FullNghs:        41182 ave       41182 max       41182 min
Histogram: 1 0 0 0 0 0 0 0 0 0

Total # of neighbors = 41182
Ave neighs/atom = 122.56548
Neighbor list builds = 0
Dangerous builds = 0
unfix           3
min_style       fire
minimize        0.0 1.0e-8 2000 4000
Switching to 'neigh_modify every 1 delay 0 check yes' setting during minimization
  Parameters for fire:
    dmax  delaystep dtgrow dtshrink alpha0 alphashrink tmax tmin   integrator   halfstepback   abcfire  
     0.1     20      1.1     0.5     0.25     0.99      10  0.02 eulerimplicit      yes          no     
Per MPI rank memory allocation (min/avg/max) = 4.51 | 4.51 | 4.51 Mbytes
   Step          Time           Temp          Fnorm          PotEng         KinEng           Lx             Ly             Lz            Pxx            Pyy            Pzz            Pxy            Pxz            Pyz      
      2065   2.065          0              4.5500523e-09 -3372.7372      0              4.8541311      4.2038008      228.99708     -610.96643     -610.96643      2.2189787e-07  8.8900751e-06  1.2777811e-07 -7.5779851e-11
      2066   2.066          2.1338595e-20  4.5440403e-09 -3372.7372      9.2400703e-22  4.8541311      4.2038008      228.99708     -610.96643     -610.96643      2.2220346e-07  8.8901035e-06  1.278174e-07  -9.9923199e-13
Loop time of 0.0216947 on 2 procs for 1 steps with 336 atoms

107.7% CPU use with 1 MPI tasks x 2 OpenMP threads

Minimization stats:
  Stopping criterion = force tolerance
  Energy initial, next-to-last, final = 
     -3372.73715630764  -3372.73715630764  -3372.73715630764
  Force two-norm initial, final = 4.5500523e-09 4.5440403e-09
  Force max component initial, final = 1.5605834e-09 1.5583295e-09
  Final line search alpha, max atom move = 0 0
  Iterations, force evaluations = 1 2

MPI task timing breakdown:
Section |  min time  |  avg time  |  max time  |%varavg| %total
---------------------------------------------------------------
Pair    | 0.021593   | 0.021593   | 0.021593   |   0.0 | 99.53
Neigh   | 0          | 0          | 0          |   0.0 |  0.00
Comm    | 6.2728e-05 | 6.2728e-05 | 6.2728e-05 |   0.0 |  0.29
Output  | 0          | 0          | 0          |   0.0 |  0.00
Modify  | 0          | 0          | 0          |   0.0 |  0.00
Other   |            | 3.899e-05  |            |       |  0.18

Nlocal:            336 ave         336 max         336 min
Histogram: 1 0 0 0 0 0 0 0 0 0
Nghost:           7168 ave        7168 max        7168 min
Histogram: 1 0 0 0 0 0 0 0 0 0
Neighs:              0 ave           0 max           0 min
Histogram: 1 0 0 0 0 0 0 0 0 0
FullNghs:        41182 ave       41182 max       41182 min
Histogram: 1 0 0 0 0 0 0 0 0 0

Total # of neighbors = 41182
Ave neighs/atom = 122.56548
Neighbor list builds = 0
Dangerous builds = 0


write_data      fire_cg_${name}.data
write_data      fire_cg_lmps.data
System init for write_data ...

write_data      bi_minimised.data
System init for write_data ...

print """- step: $(step)
  atoms: $(atoms)
  temp: $(temp)
  press: $(press)
  pe: $(pe)
  ke: $(ke)
  etotal: $(etotal)
  vol: $(vol)
  avecx: $(avecx)
  avecy: $(avecy)
  avecz: $(avecz)
  bvecx: $(bvecx)
  bvecy: $(bvecy)
  bvecz: $(bvecz)
  cvecx: $(cvecx)
  cvecy: $(cvecy)
  cvecz: $(cvecz)
  lx: $(lx)
  ly: $(ly)
  lz: $(lz)
  cella: $(cella)
  cellb: $(cellb)
  cellc: $(cellc)
  cellalpha: $(cellalpha)
  cellbeta: $(cellbeta)
  cellgamma: $(cellgamma)
  pxx: $(pxx)
  pyy: $(pyy)
  pzz: $(pzz)
  pxy: $(pxy)
  pyz: $(pyz)
  pxz: $(pxz)
  xlo: $(xlo)
  xhi: $(xhi)
  ylo: $(ylo)
  yhi: $(yhi)
  zlo: $(zlo)
  zhi: $(zhi)
  xy: $(xy)
  xz: $(xz)
  yz: $(yz)
""" file bi_minimised.data.yaml screen yes universe no
- step: 2066
  atoms: 336
  temp: 2.1338595398572502805e-20
  press: -407.31095164434361777
  pe: -3372.7371563076367238
  ke: 9.2400702833079792063e-22
  etotal: -3372.7371563076367238
  vol: 4672.8685619452335231
  avecx: 4.8541310641848607332
  avecy: 0
  avecz: 0
  bvecx: -2.4270655321457348386
  bvecy: 4.2038008148832508581
  bvecz: 0
  cvecx: 0
  cvecy: 0
  cvecz: 228.99707601464129425
  lx: 4.8541310641848607332
  ly: 4.2038008148832508581
  lz: 228.99707601464129425
  cella: 4.8541310641848607332
  cellb: 4.8541310642114865459
  cellc: 228.99707601464129425
  cellalpha: 90
  cellbeta: 90
  cellgamma: 120.00000000054507154
  pxx: -610.96642758239579507
  pyy: -610.96642757283871106
  pzz: 2.222034620854832297e-07
  pxy: 8.8901035064139276678e-06
  pyz: -9.9923199051198464376e-13
  pxz: 1.2781739767032805373e-07
  xlo: 0.00049104455757122676164
  xhi: 4.8546221087424319407
  ylo: 0.00042525705837334908024
  yhi: 4.2042260719416244541
  zlo: -8.5418097784203812495
  zhi: 220.45526623622092188
  xy: -2.4270655321457348386
  xz: 0
  yz: 0

[GRACE:debug, proc #0]: Data preparation timer: 1.61928e+06 mcs, graph execution time: 2.52099e+07 mcs, data preparation time fraction: 6.04 %
Total wall time: 0:00:29
