LAMMPS data file via write_data, version 29 Aug 2024, timestep = 348, units = metal

39 atoms
2 atom types

-0.01903892542909581 4.95796669222909 xlo xhi
-0.016488193085072766 4.293725106585076 ylo yhi
0.3161386018227416 26.78100583187729 zlo zhi
-2.4885028088322594 0 0 xy xz yz

Masses

1 180.94788
2 55.845

Atoms # atomic

12 1 -0.019038925429078046 2.856987340042835 0.6773035018185195 0 0 0
18 1 -0.019038925428971464 2.856987340042787 3.412507143256986 0 0 0
21 1 -0.01903892542688858 -0.016488193070610602 0.31613860182541476 0 0 0
37 2 2.4694638834001545 2.815516791975072 2.365705385978907 0 0 0
38 2 3.677800739680736 0.7226159642415997 2.365705385978786 0 0 0
39 2 1.261127027122702 0.7226159642416522 2.3657053859790196 0 0 0
6 1 -0.019038925427029216 -0.01648819307065319 4.70196434424212 0 0 0
17 1 -0.019038925429016095 2.856987340042754 6.041392470403868 0 0 0
36 2 1.1892979308516898 0.6811454161737389 7.088194227681953 0 0 0
5 1 2.469463883401287 1.4202495734860632 4.751935269416451 0 0 0
34 2 2.4694638834000715 2.8984578881102996 7.088194227682073 0 0 0
35 2 3.749629835951669 0.6811454161737851 7.088194227682176 0 0 0
10 1 -0.0190389254268403 -0.016488193070906463 9.498925911833219 0 0 0
11 1 -0.01903892542880693 2.8569873400425303 8.776596111845667 0 0 0
31 2 -1.2273757817075912 2.1593537307977475 11.187327795997028 0 0 0
32 2 1.1892979308511293 2.1593537307977027 11.187327795996811 0 0 0
33 2 -0.019038925429788144 4.2522545585317815 11.187327795996909 0 0 0
20 1 2.469463883401269 1.4202495734858127 9.137761011838682 0 0 0
3 1 -0.019038925428612196 2.8569873400423127 13.573557679439247 0 0 0
15 1 -0.019038925426665004 -0.016488193071115674 14.863014880427759 0 0 0
16 1 -0.019038925426626167 -0.016488193071105123 12.234129553277599 0 0 0
4 1 2.4694638834012554 1.4202495734855964 13.52358675426612 0 0 0
9 1 -0.01903892542654974 -0.01648819307111122 17.59821852187215 0 0 0
19 1 -0.019038925428738317 2.8569873400423353 17.959383421866693 0 0 0
8 1 2.469463883401333 1.4202495734856226 18.320548321859704 0 0 0
28 2 2.4694638834023985 0.024982354996222228 15.909816637708449 0 0 0
29 2 1.2611270271214665 2.1178831827302926 15.90981663770857 0 0 0
30 2 3.6778007396801993 2.117883182730242 15.90981663770835 0 0 0
1 1 -0.01903892542661746 -0.01648819307083772 22.39518008946326 0 0 0
2 1 -0.019038925429005437 2.8569873400425942 22.345209164288935 0 0 0
26 2 -1.2992048779792431 3.5960914973546005 20.008950206023158 0 0 0
27 2 -0.01903892542766551 1.3787790254180758 20.008950206023325 0 0 0
14 1 2.469463883401349 1.4202495734858007 21.0557519633015 0 0 0
25 2 1.2611270271207171 3.596091497354657 20.008950206023417 0 0 0
22 2 1.1892979308494935 3.5546209492871856 24.731439047726358 0 0 0
23 2 -1.2273757817085467 3.55462094928724 24.731439047726596 0 0 0
24 2 -0.019038925427959385 1.461720121553772 24.73143904772644 0 0 0
7 1 2.4694638834012266 1.4202495734861027 26.419840931886846 0 0 0
13 1 2.4694638834012146 1.4202495734859517 23.684637290448375 0 0 0

Velocities

12 -6.582326156171279e-14 -1.1984513706433084e-13 3.2153703047144376e-11
18 1.7163545828225215e-14 2.5951697362982127e-14 -2.5412277234676745e-11
21 4.455294404558921e-15 -3.704570718383574e-15 -4.650398388672443e-15
37 -1.1622990655260561e-14 2.894522019228077e-11 -4.958414733788333e-11
38 2.4924959741227606e-11 -1.4426154398934582e-11 -4.928419818644841e-11
39 -2.4745140826768432e-11 -1.4331511855445163e-11 -4.9005516752908476e-11
6 -1.0466849732614256e-13 -1.8860772906159104e-13 3.4038512335299594e-11
17 -1.4574050240108318e-14 -3.281440253607682e-14 2.596756264455007e-11
36 2.4738456001797606e-11 1.4303149303587229e-11 5.0756074721298014e-11
5 1.0923785381401466e-13 1.8196976520147552e-13 -3.333014330290815e-11
34 2.378473627315666e-14 -2.8943680860275295e-11 5.133778576856888e-11
35 -2.4897990260857496e-11 1.4399482235026588e-11 5.103744399156402e-11
10 -6.665025196241332e-14 -1.1489869485982753e-13 3.2396075058718775e-11
11 6.725599935568287e-14 1.158915353153773e-13 -3.1833803367602295e-11
31 -2.4682315940152357e-11 -1.4264025813971378e-11 -4.895803303608063e-11
32 2.4842353719027122e-11 -1.4365398738986304e-11 -4.9247684607872994e-11
33 -2.7923155725632374e-14 2.887853978251079e-11 -4.953358795418629e-11
20 4.141421419330422e-16 9.396533472168875e-16 3.3348645307539925e-13
3 1.0359359387116571e-13 1.8946776370342652e-13 -3.3644022763082194e-11
15 -1.7814052287536977e-14 -2.5676188430099763e-14 2.5583150677576814e-11
16 1.5144171969359966e-14 3.3080177037252835e-14 -2.55804807800315e-11
4 -1.0690542089145388e-13 -1.8209211276624363e-13 3.3643709005720996e-11
9 6.570253037246896e-14 1.1958963108821724e-13 -3.239564364234713e-11
19 -2.2613284815092036e-15 1.9510860907462524e-15 -3.3652225224096895e-13
8 -6.860638928594591e-14 -1.113865919533819e-13 3.183310647846335e-11
28 1.0445188874005666e-14 -2.8863055349346655e-11 4.953251797457968e-11
29 -2.4853833970806292e-11 1.4386560957491513e-11 4.924485530605608e-11
30 2.4673358082874376e-11 1.428932888352559e-11 4.895181276808186e-11
1 1.0722321607849854e-13 1.8406083730239497e-13 -3.404482263222799e-11
2 -1.0764241711495656e-13 -1.8599891569004013e-13 3.332330909038605e-11
26 2.489176100143346e-11 -1.4395367758825031e-11 -5.102169041507027e-11
27 -2.2513370102219147e-14 2.8943306816984243e-11 -5.1335074554137114e-11
14 1.5202580499840764e-14 3.077708115497175e-14 -2.5966248415603154e-11
25 -2.473550201888367e-11 -1.4303266791544034e-11 -5.074942586202825e-11
22 2.4757834321530113e-11 1.4309743015448699e-11 4.9007295856254366e-11
23 -2.4920926787281793e-11 1.4409399177666239e-11 4.930073521579697e-11
24 2.372777184767164e-14 -2.897182522021345e-11 4.959656989103034e-11
7 6.821537699790128e-14 1.1163843264782167e-13 -3.2154888517174197e-11
13 -1.5195798006346367e-14 -3.041703443698526e-14 2.5416803036613312e-11
