
thermo          10
thermo_style    custom step time temp fnorm pe ke lx ly lz pxx pyy pzz pxy pxz pyz

timestep        0.001

min_style       fire
minimize        0.0 1.0e-8 2000 4000

CITE-CITE-CITE-CITE-CITE-CITE-CITE-CITE-CITE-CITE-CITE-CITE-CITE

Your simulation uses code contributions which should be cited:

- Type Label Framework: https://doi.org/10.1021/acs.jpcb.3c08419

@Article{Gissinger24,
 author = {Jacob R. Gissinger, Ilia Nikiforov, Yaser Afshar, Brendon Waters, Moon-ki Choi, Daniel S. Karls, Alexander Stukowski, Wonpil Im, Hendrik Heinz, Axel Kohlmeyer, and Ellad B. Tadmor},
 title = {Type Label Framework for Bonded Force Fields in LAMMPS},
 journal = {J. Phys. Chem. B},
 year =    2024,
 volume =  128,
 number =  13,
 pages =   {3282–-3297}
}

CITE-CITE-CITE-CITE-CITE-CITE-CITE-CITE-CITE-CITE-CITE-CITE-CITE

Switching to 'neigh_modify every 1 delay 0 check yes' setting during minimization
Neighbor list info ...
  update: every = 1 steps, delay = 0 steps, check = yes
  max neighbors/atom: 2000, page size: 100000
  master list distance cutoff = 7.4
  ghost atom cutoff = 7.4
  binsize = 3.7, bins = 10 6 37
  1 neighbor lists, perpetual/occasional/extra = 1 0 0
  (1) pair grace, perpetual
      attributes: full, newton on
      pair build: full/bin/atomonly
      stencil: full/bin/3d
      bin: standard
  Parameters for fire:
    dmax  delaystep dtgrow dtshrink alpha0 alphashrink tmax tmin   integrator   halfstepback   abcfire  
     0.1     20      1.1     0.5     0.25     0.99      10  0.02 eulerimplicit      yes          no     
[GRACE] Atoms padding: new num. of atoms = 4924 (incl. 0.995% fake atoms)
[GRACE] Neighbours padding: extending new num. of neighbours = 313605 (incl. 0.990% fake neighbours)
Per MPI rank memory allocation (min/avg/max) = 5.769 | 5.769 | 5.769 Mbytes
   Step          Time           Temp          Fnorm          PotEng         KinEng           Lx             Ly             Lz            Pxx            Pyy            Pzz            Pxy            Pxz            Pyz      
         0   0              0              9.4193491     -49156.128      0              24.275566      21.023257      134.1558      -11192.242     -11192.242     -24577.139      8.7108469e-06  5.0313255e-07 -2.6512482e-07
        10   0.01           0.65357618     8.5837483     -49156.629      0.41176211     24.275566      21.023257      134.1558      -11246.795     -11246.795     -24583.051      8.681153e-06   4.901324e-07  -2.4976597e-07
        20   0.02           2.3405999      6.5896032     -49157.705      1.4746106      24.275566      21.023257      134.1558      -11370.051     -11370.051     -24571.711      8.5826254e-06  4.4705565e-07 -2.1429732e-07
        30   0.070738431    4.9620514      2.8410168     -49159.287      3.1261616      24.275566      21.023257      134.1558      -11622.724     -11622.724     -24365.458      8.3170035e-06  3.3822487e-07 -1.2657809e-07
        40   0.083544963    0.0030433295   0.71060409    -49159.837      0.00191734     24.275566      21.023257      134.1558      -11779.317     -11779.317     -23786.674      8.1073643e-06  2.4793831e-07 -1.5129444e-08
        50   0.1044312      0.029779232    0.41929679    -49159.854      0.018761332    24.275566      21.023257      134.1558      -11752.768     -11752.768     -23769.12       8.1358617e-06  2.5525726e-07 -1.9652314e-08
        60   0.16679752     0.060668943    0.053816893   -49159.865      0.03822228     24.275566      21.023257      134.1558      -11705.019     -11705.019     -23700.057      8.1852447e-06  2.5318547e-07 -2.6753362e-08
        70   0.10702841     3.6439119e-05  0.047069746   -49159.865      2.2957153e-05  24.275566      21.023257      134.1558      -11701.331     -11701.331     -23692.154      8.1872954e-06  2.4882294e-07 -2.7429076e-08
        80   0.12231818     0.00014281486  0.033049593   -49159.865      8.9975353e-05  24.275566      21.023257      134.1558      -11701.821     -11701.821     -23691.185      8.1864937e-06  2.4654151e-07 -2.7392918e-08
        90   0.29497487     0.00029109847  0.0085060752  -49159.865      0.00018339609  24.275566      21.023257      134.1558      -11701.838     -11701.838     -23688.179      8.185837e-06   2.3988106e-07 -2.7078524e-08
       100   0.85009871     1.9832656e-05  0.0036733944  -49159.865      1.249485e-05   24.275566      21.023257      134.1558      -11699.856     -11699.856     -23684.667      8.1903004e-06  2.2759904e-07 -2.6671649e-08
       110   0.55           4.1777726e-08  0.00056549859 -49159.865      2.632055e-08   24.275566      21.023257      134.1558      -11700.504     -11700.504     -23685.521      8.1895284e-06  2.288517e-07  -2.6654638e-08
       120   0.6            1.52162e-07    0.00033518686 -49159.865      9.5864182e-08  24.275566      21.023257      134.1558      -11700.491     -11700.491     -23685.56       8.1889094e-06  2.3083847e-07 -2.6698451e-08
       130   0.57575733     3.7067762e-14  5.4011496e-06 -49159.865      2.3353207e-14  24.275566      21.023257      134.1558      -11700.492     -11700.492     -23685.559      8.1887669e-06  2.3141268e-07 -2.6697696e-08
       140   0.62004635     1.4520628e-12  2.2966498e-06 -49159.865      9.1481982e-13  24.275566      21.023257      134.1558      -11700.492     -11700.492     -23685.559      8.1887683e-06  2.3140094e-07 -2.669134e-08 
       150   0.66433538     2.0353256e-12  1.0691202e-06 -49159.865      1.2822835e-12  24.275566      21.023257      134.1558      -11700.491     -11700.491     -23685.559      8.188744e-06   2.3138522e-07 -2.6706706e-08
       160   0.75949967     1.7776902e-16  1.5620556e-07 -49159.865      1.1199696e-16  24.275566      21.023257      134.1558      -11700.491     -11700.491     -23685.559      8.1888102e-06  2.3135766e-07 -2.6678037e-08
       170   0.8069684      9.9136904e-16  4.9048635e-08 -49159.865      6.2457632e-16  24.275566      21.023257      134.1558      -11700.491     -11700.491     -23685.559      8.1887601e-06  2.3135838e-07 -2.6702091e-08
       180   0.93988084     1.3859213e-15  2.0482845e-08 -49159.865      8.7314974e-16  24.275566      21.023257      134.1558      -11700.491     -11700.491     -23685.559      8.188786e-06   2.3135711e-07 -2.6708578e-08
       184   1.4066591      1.624109e-15   6.5207717e-09 -49159.865      1.0232113e-15  24.275566      21.023257      134.1558      -11700.491     -11700.491     -23685.559      8.1887579e-06  2.3134238e-07 -2.6694213e-08
Loop time of 16.3574 on 1 procs for 184 steps with 4875 atoms

98.5% CPU use with 1 MPI tasks x 1 OpenMP threads

Minimization stats:
  Stopping criterion = force tolerance
  Energy initial, next-to-last, final = 
     -49156.1279136212  -49159.8649192838  -49159.8649192815
  Force two-norm initial, final = 9.4193491 6.5207717e-09
  Force max component initial, final = 0.16355985 2.1798346e-10
  Final line search alpha, max atom move = 0 0
  Iterations, force evaluations = 184 190

MPI task timing breakdown:
Section |  min time  |  avg time  |  max time  |%varavg| %total
---------------------------------------------------------------
Pair    | 16.324     | 16.324     | 16.324     |   0.0 | 99.79
Neigh   | 0          | 0          | 0          |   0.0 |  0.00
Comm    | 0.014824   | 0.014824   | 0.014824   |   0.0 |  0.09
Output  | 0.0012138  | 0.0012138  | 0.0012138  |   0.0 |  0.01
Modify  | 0          | 0          | 0          |   0.0 |  0.00
Other   |            | 0.01777    |            |       |  0.11

Nlocal:           4875 ave        4875 max        4875 min
Histogram: 1 0 0 0 0 0 0 0 0 0
Nghost:          11117 ave       11117 max       11117 min
Histogram: 1 0 0 0 0 0 0 0 0 0
Neighs:              0 ave           0 max           0 min
Histogram: 1 0 0 0 0 0 0 0 0 0
FullNghs:       585000 ave      585000 max      585000 min
Histogram: 1 0 0 0 0 0 0 0 0 0

Total # of neighbors = 585000
Ave neighs/atom = 120
Neighbor list builds = 0
Dangerous builds = 0

#write_data      fire_${name}.data

fix             3 all box/relax aniso 0.0 vmax 0.001
min_style       cg
minimize        0.0 1.0e-8 1000 2000
Switching to 'neigh_modify every 1 delay 0 check yes' setting during minimization
WARNING: Energy due to 3 extra global DOFs will be included in minimizer energies
 (src/min.cpp:219)
Per MPI rank memory allocation (min/avg/max) = 6.894 | 6.894 | 6.894 Mbytes
   Step          Time           Temp          Fnorm          PotEng         KinEng           Lx             Ly             Lz            Pxx            Pyy            Pzz            Pxy            Pxz            Pyz      
       184   0.184          1.624109e-15   6.5208326e-09 -49159.865      1.0232113e-15  24.275566      21.023257      134.1558      -11700.491     -11700.491     -23685.559      8.1887727e-06  2.3136968e-07 -2.6611663e-08
       190   0.19           1.624109e-15   0.91927198    -49163.788      1.0232113e-15  24.248018      20.9994        133.35086      1551.3722      1551.3723     -2920.2788      8.7634113e-06  2.164514e-07   1.6721435e-08
       200   0.2            1.624109e-15   0.41666737    -49164.019      1.0232113e-15  24.27314       21.021156      133.06905     -287.06097     -287.05964      296.72936     -0.00037663014 -2.4573482e-05 -4.2889155e-05
       210   0.21           1.624109e-15   0.1805152     -49164.033      1.0232113e-15  24.270446      21.018812      133.09068      0.23391078     1.0636755     -0.58196063    -0.2395236     -0.015259252   -0.026430069  
       220   0.22           1.624109e-15   0.074591868   -49164.035      1.0232113e-15  24.270574      21.018934      133.08787      1.0499403      1.0520284      1.496116      -0.00059340369 -3.319456e-05  -5.8174682e-05
       230   0.23           1.624109e-15   0.074156088   -49164.035      1.0232113e-15  24.270618      21.018973      133.08655     -0.40855256    -0.52342585     0.45502897     0.03317012     0.002105461    0.0036464131 
       240   0.24           1.624109e-15   0.067474004   -49164.035      1.0232113e-15  24.270651      21.019006      133.08569      1.5790618      1.173472       1.4762325      0.11709255     0.0074206202   0.012852727  
       250   0.25           1.624109e-15   0.038911685   -49164.035      1.0232113e-15  24.270677      21.019022      133.08548      1.1112524      1.1762633     -0.35235942    -0.01875818    -0.0011898906  -0.0020610937 
       260   0.26           1.624109e-15   0.029703378   -49164.035      1.0232113e-15  24.270722      21.019048      133.08534     -4.244612      -3.2915456     -1.9648055     -0.27511788    -0.017429325   -0.030188572  
       270   0.27           1.624109e-15   0.025542736   -49164.035      1.0232113e-15  24.27066       21.019073      133.08544      1.4869499     -3.2779424     -1.6622569      1.37551        0.087126204    0.15090826   
       280   0.28           1.624109e-15   0.025807714   -49164.035      1.0232113e-15  24.270671      21.019034      133.08551      2.6726217      1.4797561     -0.53838351     0.34435927     0.021810426    0.037776658  
       290   0.29           1.624109e-15   0.029992561   -49164.035      1.0232113e-15  24.27071       21.019044      133.08546     -1.9453214     -1.3617235     -0.82493272    -0.16846132    -0.010673157   -0.018486671  
       300   0.3            1.624109e-15   0.035846839   -49164.035      1.0232113e-15  24.270685      21.019036      133.0856       0.722554       0.21294302    -0.28659526     0.14712098     0.0093180284   0.01613902   
       310   0.31           1.624109e-15   0.042467885   -49164.035      1.0232113e-15  24.270706      21.019027      133.08573     -2.1505845     -0.58034311    -1.0223528     -0.4532811     -0.028720751   -0.049746018  
       320   0.32           1.624109e-15   0.048719387   -49164.035      1.0232113e-15  24.270657      21.01906       133.08583      0.83639146    -3.1829345      1.2361878      1.1602852      0.073527202    0.12735338   
       330   0.33           1.624109e-15   0.05089786    -49164.035      1.0232113e-15  24.270643      21.01899       133.08626      2.9445172      3.1881135      1.0475147     -0.070310882   -0.004458348   -0.007722692  
       340   0.34           1.624109e-15   0.048707734   -49164.035      1.0232113e-15  24.270654      21.018994      133.08632      0.28109133     0.91893754     1.7223486     -0.18412105    -0.011675134   -0.020222598  
       350   0.35           1.624109e-15   0.044117854   -49164.035      1.0232113e-15  24.270618      21.019         133.08659      1.1005332     -0.97274879    -0.48140824     0.59851346     0.037954325    0.06573833   
       360   0.36           1.624109e-15   0.038083325   -49164.035      1.0232113e-15  24.270638      21.018955      133.08675     -0.36543569     2.0908219     -0.7862451     -0.70905232    -0.044972994   -0.07789593   
       370   0.37           1.624109e-15   0.032456016   -49164.035      1.0232113e-15  24.270619      21.01897       133.08664      1.6841804      1.8478487      2.8360183     -0.047237529   -0.0029969168  -0.0051916197 
       380   0.38           1.624109e-15   0.027419419   -49164.035      1.0232113e-15  24.270597      21.01898       133.08682      1.3341463     -0.6202329     -0.41358377     0.56418932     0.035789947    0.061989443  
       390   0.39           1.624109e-15   0.023793917   -49164.035      1.0232113e-15  24.270624      21.018961      133.08682     -1.0177484      0.16444193    -0.64965208    -0.34125983    -0.021649728   -0.037499124  
       400   0.4            1.624109e-15   0.021886405   -49164.035      1.0232113e-15  24.27061       21.018971      133.08677      0.19053471    -0.27315093     0.55972799     0.13386387     0.0084923906   0.014708511  
       410   0.41           1.624109e-15   0.021153744   -49164.035      1.0232113e-15  24.27061       21.018969      133.08683     -0.43443567    -0.73450696    -0.93051532     0.086632457    0.0054962116   0.0095190084 
       420   0.42           1.624109e-15   0.021746912   -49164.035      1.0232113e-15  24.270618      21.018958      133.08678     -0.53636099     0.47512397    -0.17630061    -0.29198147    -0.01852366    -0.032084518  
       430   0.43           1.624109e-15   0.023588543   -49164.035      1.0232113e-15  24.270615      21.018964      133.08669      0.13799916     0.54926359     0.98975943    -0.11871262    -0.0075307766  -0.013044269  
       440   0.44           1.624109e-15   0.026680114   -49164.035      1.0232113e-15  24.270606      21.018977      133.08674     -0.28975534    -1.4724729     -1.3252239      0.34143        0.021660927    0.037517422  
       450   0.45           1.624109e-15   0.030937161   -49164.035      1.0232113e-15  24.270633      21.018951      133.08665     -1.104982       1.4072611     -0.55910603    -0.72521449    -0.046003385   -0.079680151  
       460   0.46           1.624109e-15   0.035308851   -49164.035      1.0232113e-15  24.270634      21.018967      133.08638      0.42526913     1.7731369      2.7339912     -0.38908748    -0.024678038   -0.042743671  
       470   0.47           1.624109e-15   0.039859963   -49164.035      1.0232113e-15  24.270619      21.019001      133.08639     -0.010686455   -2.1522984     -1.1718126      0.61823771     0.039212301    0.067918063  
       480   0.48           1.624109e-15   0.042376813   -49164.035      1.0232113e-15  24.270654      21.018979      133.08622     -0.81810184     0.92277708    -0.62543906    -0.50254077    -0.031863567   -0.055188784  
       490   0.49           1.624109e-15   0.042296214   -49164.035      1.0232113e-15  24.270661      21.018997      133.08593      0.55991849     1.4586552      1.8339772     -0.259435      -0.01644412    -0.028481413  
       500   0.5            1.624109e-15   0.03995963    -49164.035      1.0232113e-15  24.270662      21.019026      133.08588     -0.32107577    -1.4841523     -0.97731856     0.33575892     0.021288017    0.036872799  
       510   0.51           1.624109e-15   0.035653447   -49164.035      1.0232113e-15  24.270692      21.019011      133.08575     -0.98920033     0.8019165     -0.55682956    -0.51704376    -0.032765255   -0.056749961  
       520   0.52           1.624109e-15   0.030576399   -49164.035      1.0232113e-15  24.270687      21.01903       133.08555      0.96545455     1.0528751      1.8628951     -0.025228365   -0.001593821   -0.0027595915 
       530   0.53           1.624109e-15   0.026055854   -49164.035      1.0232113e-15  24.270687      21.01905       133.08561     -0.51431027    -1.8791773     -1.2945892      0.39401055     0.024972251    0.043254316  
       540   0.54           1.624109e-15   0.022111946   -49164.035      1.0232113e-15  24.270708      21.019027      133.0856      -0.87686723     0.84528663    -0.92263907    -0.49713581    -0.031495862   -0.054551296  
       550   0.55           1.624109e-15   0.019589659   -49164.035      1.0232113e-15  24.270708      21.019035      133.08548      0.15381183     1.2704792      1.3008805     -0.32234647    -0.020420136   -0.035367752  
       560   0.56           1.624109e-15   0.018260024   -49164.035      1.0232113e-15  24.270699      21.019052      133.08554     -0.33712214    -1.0766572     -0.56900995     0.21349326     0.013530655    0.023436593  
       570   0.57           1.624109e-15   0.018236022   -49164.035      1.0232113e-15  24.270704      21.019039      133.08557     -0.14176944     0.41041197    -0.43420998    -0.15939297    -0.010096156   -0.017486388  
       580   0.58           1.624109e-15   0.019222927   -49164.035      1.0232113e-15  24.270709      21.019038      133.08554     -0.17058147     0.72160732     0.53534749    -0.25754457    -0.016315905   -0.028259448  
       590   0.59           1.624109e-15   0.021386081   -49164.035      1.0232113e-15  24.270694      21.019049      133.08559      0.40896108    -0.38672643     0.0044833364   0.22970361     0.014555035    0.025210343  
       600   0.6            1.624109e-15   0.02443831    -49164.035      1.0232113e-15  24.270701      21.019032      133.08568     -0.09672192     0.76482295    -0.4324247     -0.24869788    -0.015758973   -0.027295364  
       610   0.61           1.624109e-15   0.028136255   -49164.035      1.0232113e-15  24.270692      21.019045      133.08562      0.61749404    -0.017798638    1.7871704      0.1834024      0.011618171    0.020122785  
       620   0.62           1.624109e-15   0.031674271   -49164.035      1.0232113e-15  24.270669      21.019043      133.08583      1.1322593     -0.85776162    -0.16198833     0.57447849     0.036398754    0.063043715  
       630   0.63           1.624109e-15   0.034433212   -49164.035      1.0232113e-15  24.270673      21.019021      133.08604     -0.31651718    -0.43367812    -1.9358924      0.033831827    0.0021345777   0.0036955605 
       640   0.64           1.624109e-15   0.035671259   -49164.035      1.0232113e-15  24.270683      21.019017      133.08607     -2.4155921     -1.6548311     -1.0515272     -0.21960188    -0.013933113   -0.02413516   
       650   0.65           1.624109e-15   0.034820848   -49164.035      1.0232113e-15  24.270641      21.019019      133.08624      0.089748348   -1.9623291     -0.92418555     0.59239445     0.037536518    0.065012477  
       660   0.66           1.624109e-15   0.03221598    -49164.035      1.0232113e-15  24.270635      21.018986      133.08643      0.27362869     0.33449308    -1.438162      -0.017558009   -0.0011332131  -0.001966185  
       670   0.67           1.624109e-15   0.028587123   -49164.035      1.0232113e-15  24.270643      21.018974      133.08643     -0.65176021     0.74658994     0.026483133   -0.40365706    -0.025616499   -0.044372648  
       680   0.68           1.624109e-15   0.024728762   -49164.035      1.0232113e-15  24.270629      21.018981      133.08643     -0.12780202    -0.065390026    0.87910009    -0.018004427   -0.0011644296  -0.0020206638 
       690   0.69           1.624109e-15   0.021197651   -49164.035      1.0232113e-15  24.270612      21.018978      133.08652      0.836901       0.038911769    0.4453693      0.23037184     0.014586158    0.025260203  
       700   0.7            1.624109e-15   0.01835614    -49164.035      1.0232113e-15  24.270617      21.018965      133.08655      0.46629147     0.87502441     0.53130739    -0.11797887    -0.0075042058  -0.013001358  
       710   0.71           1.624109e-15   0.016435774   -49164.035      1.0232113e-15  24.270615      21.018971      133.08653      0.12089257    -0.0019690553   0.62873102     0.035479096    0.0022287602   0.0038568066 
       720   0.72           1.624109e-15   0.01536678    -49164.035      1.0232113e-15  24.270607      21.018971      133.08657      0.42070184    -0.22613824     0.010062309    0.1867383      0.011823126    0.020475009  
       730   0.73           1.624109e-15   0.015182232   -49164.035      1.0232113e-15  24.27061       21.018963      133.0866       0.13497569     0.26819683    -0.45882299    -0.038446219   -0.0024561117  -0.0042570656 
       740   0.74           1.624109e-15   0.015903393   -49164.035      1.0232113e-15  24.27062       21.018962      133.08655     -0.63563225     0.21025942    -0.12131483    -0.24417705    -0.01550111    -0.026851212  
       750   0.75           1.624109e-15   0.017443454   -49164.035      1.0232113e-15  24.270617      21.018974      133.08651     -0.70739995    -0.94470113    -0.14244791     0.068513376    0.0043336513   0.0075041183 
       760   0.76           1.624109e-15   0.019733397   -49164.035      1.0232113e-15  24.270615      21.01897       133.08655     -0.62946721    -0.67550128    -1.1978347      0.013298554    0.00083717088  0.0014488096 
       770   0.77           1.624109e-15   0.022585931   -49164.035      1.0232113e-15  24.270631      21.018966      133.08644     -1.1360532      0.13571443    -0.15633893    -0.36711936    -0.02328131    -0.040324507  
       780   0.78           1.624109e-15   0.025548759   -49164.035      1.0232113e-15  24.270629      21.018981      133.08631     -0.33967822    -0.33419898     1.187662      -0.0015743095  -8.9810017e-05 -0.00015447567
       790   0.79           1.624109e-15   0.028101448   -49164.035      1.0232113e-15  24.270613      21.018989      133.08628      1.8416368      0.29389192     1.1104028      0.44680083     0.028354228    0.049113751  
       800   0.8            1.624109e-15   0.029831474   -49164.035      1.0232113e-15  24.270646      21.018979      133.08625     -0.44127409     0.85913476    -0.43579538    -0.37539193    -0.023767437   -0.041161812  
       810   0.81           1.624109e-15   0.029872557   -49164.035      1.0232113e-15  24.270653      21.019004      133.08605     -0.10700177    -0.2811288      0.92144575     0.05026867     0.0032358483   0.0056108259 
       820   0.82           1.624109e-15   0.028108648   -49164.035      1.0232113e-15  24.270669      21.019001      133.08609     -1.2273217     -0.12765129    -1.5193913     -0.31744662    -0.020064432   -0.034744851  
       830   0.83           1.624109e-15   0.02511332    -49164.035      1.0232113e-15  24.27068       21.019018      133.08587     -0.77398045    -0.20629523     0.83874879    -0.1638764     -0.010319162   -0.017864647  
       840   0.84           1.624109e-15   0.021765621   -49164.035      1.0232113e-15  24.270673      21.019027      133.08593     -0.33592873    -0.83630826    -1.0644653      0.14444698     0.0092306987   0.015997161  
       850   0.85           1.624109e-15   0.01867362    -49164.035      1.0232113e-15  24.270688      21.019023      133.08585     -0.45820098     0.26472419     0.10673584    -0.20869071    -0.01315239    -0.022771401  
       860   0.86           1.624109e-15   0.015922383   -49164.035      1.0232113e-15  24.270679      21.019036      133.08587      0.039133905   -0.80149151    -0.76625673     0.24266776     0.015456512    0.026780406  
       870   0.87           1.624109e-15   0.014127309   -49164.035      1.0232113e-15  24.270691      21.019027      133.08584     -0.21287828     0.36100481    -0.25428591    -0.16566507    -0.01042816    -0.018053653  
       880   0.88           1.624109e-15   0.013136888   -49164.035      1.0232113e-15  24.270688      21.019039      133.08582     -0.25011978    -0.67398558    -0.29457943     0.12236095     0.0078236725   0.01355878   
       890   0.89           1.624109e-15   0.012974962   -49164.035      1.0232113e-15  24.270691      21.01903       133.08585     -0.019763291    0.3349806     -0.40227276    -0.10240342    -0.0064283236  -0.011127246  
       900   0.9            1.624109e-15   0.013527369   -49164.035      1.0232113e-15  24.270693      21.019039      133.08582     -0.47909824    -0.70884088    -0.20233476     0.066324559    0.0042572878   0.0073795661 
       910   0.91           1.624109e-15   0.014851282   -49164.035      1.0232113e-15  24.270687      21.019033      133.08587      0.21231138     0.094685891   -0.42002671     0.033960632    0.0021947914   0.0038057316 
       920   0.92           1.624109e-15   0.016932102   -49164.035      1.0232113e-15  24.270696      21.019038      133.08583     -0.84815922    -0.80536685     0.0023162529  -0.012345747   -0.00075787343 -0.0013106966 
       930   0.93           1.624109e-15   0.019459737   -49164.035      1.0232113e-15  24.270679      21.019036      133.08591      0.52714165    -0.35387606    -0.21210301     0.25433787     0.016122651    0.027924476  
       940   0.94           1.624109e-15   0.022041998   -49164.035      1.0232113e-15  24.270687      21.01902       133.08595      0.10707877     0.96030371     0.11667893    -0.24629138    -0.015638245   -0.027090557  
       950   0.95           1.624109e-15   0.024359862   -49164.035      1.0232113e-15  24.270675      21.019035      133.086       -0.5447695     -1.5588109     -0.79020364     0.29274636     0.018489573    0.03201602   
       960   0.96           1.624109e-15   0.0258151     -49164.035      1.0232113e-15  24.270673      21.019006      133.08609      0.23472512     1.2000553     -0.1689719     -0.27864405    -0.017774621   -0.030800557  
       970   0.97           1.624109e-15   0.025702607   -49164.035      1.0232113e-15  24.270674      21.019015      133.0861      -1.4308068     -1.0318442     -0.5109645     -0.1151434     -0.0074521616  -0.012926053  
       980   0.98           1.624109e-15   0.024439738   -49164.035      1.0232113e-15  24.270649      21.019013      133.08613      0.61073484    -0.44003076     0.62940435     0.30336032     0.019042519    0.032960487  
       990   0.99           1.624109e-15   0.02212867    -49164.035      1.0232113e-15  24.270649      21.018992      133.08626     -0.0078514784   0.43519797    -0.63035639    -0.12786435    -0.0083226529  -0.014440124  
      1000   1              1.624109e-15   0.0195157     -49164.035      1.0232113e-15  24.270651      21.018994      133.0862      -0.45612468    -0.0013183519   0.63273019    -0.1312571     -0.0085552191  -0.014844353  
      1010   1.01           1.624109e-15   0.016987652   -49164.035      1.0232113e-15  24.270633      21.018992      133.08624      0.91787826     0.3568306      0.73302811     0.16199484     0.010028791    0.017343748  
      1020   1.02           1.624109e-15   0.014710663   -49164.035      1.0232113e-15  24.270636      21.018982      133.08632      0.023568925    0.39931425    -0.49268457    -0.10843455    -0.0071176042  -0.0123543    
      1030   1.03           1.624109e-15   0.0130335     -49164.035      1.0232113e-15  24.27064       21.018985      133.08625     -0.39703676     0.026696872    0.43356138    -0.12228878    -0.0079911904  -0.013866352  
      1040   1.04           1.624109e-15   0.011935256   -49164.035      1.0232113e-15  24.270626      21.018985      133.08629      0.71528168     0.21245443     0.24773655     0.14518462     0.008977161    0.015525262  
      1050   1.05           1.624109e-15   0.01147017    -49164.035      1.0232113e-15  24.27063       21.01898       133.08632      0.096493277    0.23857949    -0.43181987    -0.040987865   -0.0028128471  -0.0048936994 
      1060   1.06           1.624109e-15   0.011620949   -49164.035      1.0232113e-15  24.270635      21.018981      133.08627     -0.32795335     0.05374579     0.28434555    -0.11016092    -0.0071786097  -0.01245277   
      1070   1.07           1.624109e-15   0.012263711   -49164.035      1.0232113e-15  24.270624      21.018983      133.08628      0.60179596     0.14650264     0.22996584     0.13145455     0.0081676228   0.014131066  
      1080   1.08           1.624109e-15   0.013384222   -49164.035      1.0232113e-15  24.270627      21.018979      133.08631      0.1480765      0.15084964    -0.4398645     -0.00078210333 -0.00018134087 -0.00032552249
      1090   1.09           1.624109e-15   0.01499705    -49164.035      1.0232113e-15  24.270636      21.01898       133.08624     -0.42398166     0.12780316     0.32065685    -0.15927399    -0.010180444   -0.017638652  
      1100   1.1            1.624109e-15   0.016772526   -49164.035      1.0232113e-15  24.270622      21.018986      133.08625      0.92929423     0.19073468     0.43497675     0.21320891     0.013502348    0.023388601  
      1110   1.11           1.624109e-15   0.018461967   -49164.035      1.0232113e-15  24.270627      21.018982      133.08628      0.30361676     0.11716902    -0.68527651     0.053819504    0.0034764167   0.0060318666 
      1120   1.12           1.624109e-15   0.019883469   -49164.035      1.0232113e-15  24.270646      21.018981      133.08618     -0.69987921     0.37022767     0.37100896    -0.30892729    -0.019420154   -0.033615276  
      1130   1.13           1.624109e-15   0.020440448   -49164.035      1.0232113e-15  24.270629      21.018993      133.08616      1.1859844      0.30459736     0.85873764     0.25440995     0.016404102    0.028445085  
      1140   1.14           1.624109e-15   0.020170493   -49164.035      1.0232113e-15  24.270633      21.018993      133.08621      0.50597651    -0.060889023   -0.74398889     0.16360643     0.01074582     0.018654228  
      1150   1.15           1.624109e-15   0.019061023   -49164.035      1.0232113e-15  24.270655      21.01899       133.08612     -0.55118445     0.44622094     0.14831375    -0.2879676     -0.017791209   -0.030764874  
      1160   1.16           1.624109e-15   0.017459708   -49164.035      1.0232113e-15  24.270644      21.019002      133.08609      0.7820281      0.22860078     0.6889596      0.15971447     0.010656743    0.018513826  
      1170   1.17           1.624109e-15   0.01582876    -49164.035      1.0232113e-15  24.270647      21.019004      133.08613      0.37496841    -0.12991235    -0.40185939     0.14569792     0.0098107825   0.017051504  
      1180   1.18           1.624109e-15   0.014278733   -49164.035      1.0232113e-15  24.270662      21.019001      133.08609     -0.33152682     0.33640414     0.046989529   -0.19286405    -0.011627554   -0.020079831  
      1184   1.184          1.624109e-15   0.013712031   -49164.035      1.0232113e-15  24.270662      21.019002      133.08608     -0.1687864      0.42785497     0.1977809     -0.17228407    -0.010318134   -0.017812075  
Loop time of 171.177 on 1 procs for 1000 steps with 4875 atoms

98.3% CPU use with 1 MPI tasks x 1 OpenMP threads

Minimization stats:
  Stopping criterion = max iterations
  Energy initial, next-to-last, final = 
     -49159.8649192816  -49164.0349786181  -49164.0349786317
  Force two-norm initial, final = 1234.7014 0.025286881
  Force max component initial, final = 1012.1668 0.018134286
  Final line search alpha, max atom move = 0.072090432 0.0013073086
  Iterations, force evaluations = 1000 1993

MPI task timing breakdown:
Section |  min time  |  avg time  |  max time  |%varavg| %total
---------------------------------------------------------------
Pair    | 170.52     | 170.52     | 170.52     |   0.0 | 99.62
Neigh   | 0.012061   | 0.012061   | 0.012061   |   0.0 |  0.01
Comm    | 0.11738    | 0.11738    | 0.11738    |   0.0 |  0.07
Output  | 0.0075124  | 0.0075124  | 0.0075124  |   0.0 |  0.00
Modify  | 0          | 0          | 0          |   0.0 |  0.00
Other   |            | 0.5155     |            |       |  0.30

Nlocal:           4875 ave        4875 max        4875 min
Histogram: 1 0 0 0 0 0 0 0 0 0
Nghost:          11117 ave       11117 max       11117 min
Histogram: 1 0 0 0 0 0 0 0 0 0
Neighs:              0 ave           0 max           0 min
Histogram: 1 0 0 0 0 0 0 0 0 0
FullNghs:       585000 ave      585000 max      585000 min
Histogram: 1 0 0 0 0 0 0 0 0 0

Total # of neighbors = 585000
Ave neighs/atom = 120
Neighbor list builds = 1
Dangerous builds = 0
unfix           3
min_style       fire
minimize        0.0 1.0e-8 2000 4000
Switching to 'neigh_modify every 1 delay 0 check yes' setting during minimization
  Parameters for fire:
    dmax  delaystep dtgrow dtshrink alpha0 alphashrink tmax tmin   integrator   halfstepback   abcfire  
     0.1     20      1.1     0.5     0.25     0.99      10  0.02 eulerimplicit      yes          no     
Per MPI rank memory allocation (min/avg/max) = 6.151 | 6.151 | 6.151 Mbytes
   Step          Time           Temp          Fnorm          PotEng         KinEng           Lx             Ly             Lz            Pxx            Pyy            Pzz            Pxy            Pxz            Pyz      
      1184   1.184          0              0.013712031   -49164.035      0              24.270662      21.019002      133.08608     -0.1687864      0.42785497     0.1977809     -0.17228407    -0.010318134   -0.017812076  
      1190   1.19           3.9804584e-07  0.013399284   -49164.035      2.5077443e-07  24.270662      21.019002      133.08608     -0.14383383     0.45136397     0.20746997    -0.17186648    -0.010114806   -0.017460719  
      1200   1.2            2.7401556e-06  0.011770132   -49164.035      1.7263363e-06  24.270662      21.019002      133.08608     -0.035804244    0.55187393     0.29453973    -0.16968991    -0.0091918104  -0.015867705  
      1210   1.9487171      6.811904e-06   0.0086150901  -49164.035      4.2915945e-06  24.270662      21.019002      133.08608      0.13990713     0.71214519     0.48412137    -0.1652192     -0.0073604948  -0.012709166  
      1220   5.0962428      1.3467189e-05  0.0011577487  -49164.035      8.4845168e-06  24.270662      21.019002      133.08608      0.12005738     0.65242497     0.74889676    -0.15366767    -0.0019942651  -0.0034587059 
      1230   2.8259084      5.0101076e-08  0.00093750792 -49164.035      3.1564376e-08  24.270662      21.019002      133.08608     -0.032405265    0.50070734     0.72737755    -0.1538827     -0.0020516589  -0.0035588359 
      1240   2.8488833      1.5349616e-07  0.0001818831  -49164.035      9.6704724e-08  24.270662      21.019002      133.08608     -0.14908773     0.38703346     0.68509018    -0.15475585    -0.0027240637  -0.0047186331 
      1250   1.7374742      2.9025091e-11  6.8754717e-05 -49164.035      1.8286212e-11  24.270662      21.019002      133.08608     -0.20173438     0.33450331     0.65398345    -0.15478984    -0.0029290741  -0.0050732479 
      1260   1.751374       1.7732667e-10  5.0680741e-05 -49164.035      1.1171827e-10  24.270662      21.019002      133.08608     -0.20045816     0.33574104     0.65377453    -0.15477866    -0.0029243934  -0.0050652275 
      1270   2.842991       3.564673e-10   1.5906066e-05 -49164.035      2.2457937e-10  24.270662      21.019002      133.08608     -0.19822648     0.33787092     0.65351629    -0.15474911    -0.002917962   -0.005054285  
      1280   1.9069082      4.7117044e-14  2.4635855e-06 -49164.035      2.9684395e-14  24.270662      21.019002      133.08608     -0.19719847     0.33882284     0.65297667    -0.15472707    -0.0029245798  -0.0050658407 
      1290   1.921806       2.5537811e-13  1.925235e-06  -49164.035      1.6089177e-13  24.270662      21.019002      133.08608     -0.19724084     0.33877812     0.65289655    -0.15472639    -0.0029273388  -0.0050706156 
      1300   3.4309887      5.6660081e-13  9.3878209e-07 -49164.035      3.5696641e-13  24.270662      21.019002      133.08608     -0.1973145      0.33869815     0.65268966    -0.15472458    -0.002934815   -0.0050835573 
      1310   3.0624806      3.7051812e-16  2.2066128e-07 -49164.035      2.3343158e-16  24.270662      21.019002      133.08608     -0.19738162     0.33861553     0.65235494    -0.15472011    -0.0029514016  -0.005112283  
      1320   3.0858583      3.4273902e-15  1.1371644e-07 -49164.035      2.1593037e-15  24.270662      21.019002      133.08608     -0.1973753      0.33861963     0.65235201    -0.15471947    -0.002953074   -0.0051151809 
      1330   4.1383932      3.5288001e-15  2.4521099e-08 -49164.035      2.2231933e-15  24.270662      21.019002      133.08608     -0.19737322     0.33861565     0.65234504    -0.15471772    -0.002958818   -0.0051251318 
      1332   5.0149858      2.5321187e-15  9.9921222e-09 -49164.035      1.5952701e-15  24.270662      21.019002      133.08608     -0.19737436     0.33861263     0.65234292    -0.15471718    -0.0029607559  -0.0051284884 
Loop time of 13.2443 on 1 procs for 148 steps with 4875 atoms

98.0% CPU use with 1 MPI tasks x 1 OpenMP threads

Minimization stats:
  Stopping criterion = force tolerance
  Energy initial, next-to-last, final = 
     -49164.0349786316  -49164.0349869826  -49164.0349869839
  Force two-norm initial, final = 0.013712031 9.9921222e-09
  Force max component initial, final = 0.00034091274 1.8011904e-10
  Final line search alpha, max atom move = 0 0
  Iterations, force evaluations = 148 153

MPI task timing breakdown:
Section |  min time  |  avg time  |  max time  |%varavg| %total
---------------------------------------------------------------
Pair    | 13.216     | 13.216     | 13.216     |   0.0 | 99.79
Neigh   | 0          | 0          | 0          |   0.0 |  0.00
Comm    | 0.012399   | 0.012399   | 0.012399   |   0.0 |  0.09
Output  | 0.0012656  | 0.0012656  | 0.0012656  |   0.0 |  0.01
Modify  | 0          | 0          | 0          |   0.0 |  0.00
Other   |            | 0.01457    |            |       |  0.11

Nlocal:           4875 ave        4875 max        4875 min
Histogram: 1 0 0 0 0 0 0 0 0 0
Nghost:          11117 ave       11117 max       11117 min
Histogram: 1 0 0 0 0 0 0 0 0 0
Neighs:              0 ave           0 max           0 min
Histogram: 1 0 0 0 0 0 0 0 0 0
FullNghs:       598500 ave      598500 max      598500 min
Histogram: 1 0 0 0 0 0 0 0 0 0

Total # of neighbors = 598500
Ave neighs/atom = 122.76923
Neighbor list builds = 0
Dangerous builds = 0

fix             3 all box/relax aniso 0.0 vmax 0.001
min_style       cg
minimize        0.0 1.0e-8 1000 2000
Switching to 'neigh_modify every 1 delay 0 check yes' setting during minimization
WARNING: Energy due to 3 extra global DOFs will be included in minimizer energies
 (src/min.cpp:219)
Per MPI rank memory allocation (min/avg/max) = 7.276 | 7.276 | 7.276 Mbytes
   Step          Time           Temp          Fnorm          PotEng         KinEng           Lx             Ly             Lz            Pxx            Pyy            Pzz            Pxy            Pxz            Pyz      
      1332   1.332          2.5321187e-15  9.9921587e-09 -49164.035      1.5952701e-15  24.270662      21.019002      133.08608     -0.19737436     0.33861263     0.65234292    -0.15471718    -0.0029607559  -0.0051284884 
      1340   1.34           2.5321187e-15  3.4996427e-05 -49164.035      1.5952701e-15  24.270655      21.019004      133.08612     -0.00049467556 -0.00017503052 -0.00020354493 -8.3292351e-05  0.00037907022  0.00065627305
      1350   1.35           2.5321187e-15  1.5450304e-05 -49164.035      1.5952701e-15  24.270655      21.019004      133.08612     -0.00037532833  0.00076991614 -9.8764035e-05 -0.00032161857 -0.0018198533  -0.0031523759 
      1360   1.36           2.5321187e-15  8.9238409e-06 -49164.035      1.5952701e-15  24.270655      21.019004      133.08612      0.0025645898   0.0037457403   0.002024272   -0.00033198054 -0.00076789707 -0.0013303372 
      1370   1.37           2.5321187e-15  5.1635077e-06 -49164.035      1.5952701e-15  24.270655      21.019004      133.08612      0.0045565594   0.0034804474   0.0015356414   0.00031963509  4.2593039e-05  7.3473257e-05
      1380   1.38           2.5321187e-15  3.907314e-06  -49164.035      1.5952701e-15  24.270655      21.019004      133.08612      0.00051611563  1.7506219e-05  0.00066755025  0.00015292343  0.00026447707  0.0004577897 
      1390   1.39           2.5321187e-15  1.7035447e-06 -49164.035      1.5952701e-15  24.270655      21.019004      133.08612      1.6295402e-05  3.3269674e-05  2.455246e-05   4.0874221e-06  7.606513e-05   0.00013145081
      1400   1.4            2.5321187e-15  5.9533472e-07 -49164.035      1.5952701e-15  24.270655      21.019004      133.08612      0.00011431749  4.6045655e-05  0.00016080163  2.8695692e-05 -2.0305067e-05 -3.546727e-05 
      1410   1.41           2.5321187e-15  4.4520746e-07 -49164.035      1.5952701e-15  24.270655      21.019004      133.08612      8.2961464e-05  7.7510202e-05 -3.4623009e-05  1.0560569e-05 -2.1091122e-05 -3.6828251e-05
      1420   1.42           2.5321187e-15  4.798871e-07  -49164.035      1.5952701e-15  24.270655      21.019004      133.08612     -2.452155e-07   1.3310956e-06  4.9469253e-06  8.5323618e-06 -5.3303564e-06 -9.53039e-06  
      1430   1.43           2.5321187e-15  4.0092264e-07 -49164.035      1.5952701e-15  24.270655      21.019004      133.08612      5.9277402e-05 -2.2806507e-06 -1.0292202e-05  2.6757756e-05  1.4127422e-05  2.4171386e-05
      1440   1.44           2.5321187e-15  3.2911905e-07 -49164.035      1.5952701e-15  24.270655      21.019004      133.08612     -9.338472e-07  -1.1391035e-05  3.204672e-05   1.2006505e-05  1.7139379e-05  2.938791e-05 
      1450   1.45           2.5321187e-15  2.4550448e-07 -49164.035      1.5952701e-15  24.270655      21.019004      133.08612      1.0213056e-06  4.7443764e-06 -1.8952206e-06  7.9131071e-06  1.8375171e-05  3.1528196e-05
      1460   1.46           2.5321187e-15  2.2710408e-07 -49164.035      1.5952701e-15  24.270655      21.019004      133.08612      5.3938778e-05  2.8309509e-05  9.5964305e-06  1.6386309e-05  1.7651832e-05  3.0275449e-05
      1470   1.47           2.5321187e-15  2.4108983e-07 -49164.035      1.5952701e-15  24.270655      21.019004      133.08612      1.7264909e-05 -5.1234905e-07 -4.0298977e-06  1.4119402e-05  1.5237696e-05  2.6094455e-05
      1480   1.48           2.5321187e-15  2.8458383e-07 -49164.035      1.5952701e-15  24.270655      21.019004      133.08612     -1.9628205e-06  5.3959007e-08  8.1876778e-06  8.4050112e-06  8.827389e-06   1.4991806e-05
      1490   1.49           2.5321187e-15  3.1472487e-07 -49164.035      1.5952701e-15  24.270655      21.019004      133.08612      1.4061379e-05  4.043145e-05   6.074518e-05   1.3747047e-06  7.3462772e-08 -1.7034356e-07
      1500   1.5            2.5321187e-15  3.200129e-07  -49164.035      1.5952701e-15  24.270655      21.019004      133.08612     -8.7282929e-06  1.0598965e-05  8.6860782e-06  3.4078652e-06 -6.5474692e-06 -1.1638291e-05
      1510   1.51           2.5321187e-15  2.8691898e-07 -49164.035      1.5952701e-15  24.270655      21.019004      133.08612      4.4309458e-06  8.0395925e-06  4.3699318e-06  7.9450715e-06 -1.5492607e-05 -2.7131327e-05
      1520   1.52           2.5321187e-15  2.2442796e-07 -49164.035      1.5952701e-15  24.270655      21.019004      133.08612      2.1291334e-05  1.226774e-05  -2.1420722e-05  1.1591618e-05 -2.1017867e-05 -3.6701255e-05
      1530   1.53           2.5321187e-15  1.9362934e-07 -49164.035      1.5952701e-15  24.270655      21.019004      133.08612      4.1999647e-05  1.0135158e-05  1.5827394e-05  1.8185789e-05 -2.1370791e-05 -3.7313116e-05
      1540   1.54           2.5321187e-15  1.7243481e-07 -49164.035      1.5952701e-15  24.270655      21.019004      133.08612      9.396358e-06  -7.5680103e-07  1.7372234e-06  1.1918372e-05 -1.843038e-05  -3.2220265e-05
      1550   1.55           2.5321187e-15  1.7746474e-07 -49164.035      1.5952701e-15  24.270655      21.019004      133.08612     -2.037227e-06   1.3329299e-06  3.1520408e-06  8.0146954e-06 -9.9159496e-06 -1.7472997e-05
      1560   1.56           2.5321187e-15  1.7931568e-07 -49164.035      1.5952701e-15  24.270655      21.019004      133.08612     -5.3599762e-06  4.5490966e-05 -1.4266114e-05 -5.6917281e-06  1.947398e-06   3.0748106e-06
      1570   1.57           2.5321187e-15  1.4697862e-07 -49164.035      1.5952701e-15  24.270655      21.019004      133.08612      3.9651587e-05  2.1841875e-05  7.3159148e-06  1.4128921e-05  1.07092e-05    1.8250491e-05
      1580   1.58           2.5321187e-15  9.7143786e-08 -49164.035      1.5952701e-15  24.270655      21.019004      133.08612      4.3084844e-06  2.4119174e-06  5.5297136e-06  9.5351435e-06  1.054195e-05   1.7960752e-05
      1590   1.59           2.5321187e-15  6.6051405e-08 -49164.035      1.5952701e-15  24.270655      21.019004      133.08612      1.1506957e-06 -4.718495e-07   3.7762957e-07  9.4554857e-06  2.6064147e-06  4.2169447e-06
      1600   1.6            2.5321187e-15  5.4890838e-08 -49164.035      1.5952701e-15  24.270655      21.019004      133.08612     -4.2649513e-06  1.0642064e-05 -1.0286613e-06  4.6839585e-06 -1.8148588e-06 -3.4411287e-06
      1610   1.61           2.5321187e-15  3.4847988e-08 -49164.035      1.5952701e-15  24.270655      21.019004      133.08612      1.24982e-05   -7.3890792e-06  9.9522524e-06  1.4728503e-05 -1.4492656e-06 -2.8084013e-06
      1620   1.62           2.5321187e-15  2.628317e-08  -49164.035      1.5952701e-15  24.270655      21.019004      133.08612     -1.5804146e-07  1.3556539e-07  2.9353467e-07  8.9025967e-06 -1.0532123e-06 -2.1219892e-06
      1630   1.63           2.5321187e-15  2.7658463e-08 -49164.035      1.5952701e-15  24.270655      21.019004      133.08612      1.4253083e-06  4.449039e-06  -1.1820583e-08  8.1143843e-06 -1.101784e-07  -4.8837875e-07
      1640   1.64           2.5321187e-15  2.5379025e-08 -49164.035      1.5952701e-15  24.270655      21.019004      133.08612     -3.6458446e-06  8.0779972e-06 -1.1332841e-06  5.6026625e-06  5.0047978e-07  5.6940828e-07
      1650   1.65           2.5321187e-15  2.2412242e-08 -49164.035      1.5952701e-15  24.270655      21.019004      133.08612      7.1303959e-07  1.3461096e-06  6.9494683e-07  8.8047354e-06  1.2653457e-06  1.893654e-06 
      1660   1.66           2.5321187e-15  1.7277558e-08 -49164.035      1.5952701e-15  24.270655      21.019004      133.08612      2.1378391e-07  1.6920271e-07 -2.1657573e-07  9.0006397e-06  1.321705e-06   1.9909657e-06
      1670   1.67           2.5321187e-15  1.3972124e-08 -49164.035      1.5952701e-15  24.270655      21.019004      133.08612      4.1966085e-06 -2.5756098e-06  1.8939343e-06  1.0942807e-05  9.8153465e-07  1.4014561e-06
      1680   1.68           2.5321187e-15  1.1818557e-08 -49164.035      1.5952701e-15  24.270655      21.019004      133.08612      1.1285999e-06 -1.4834858e-06  3.2102676e-06  9.7415771e-06  9.9394424e-11 -2.9792948e-07
      1683   1.683          2.5321187e-15  6.3882873e-09 -49164.035      1.5952701e-15  24.270655      21.019004      133.08612     -9.8951225e-09 -2.5710075e-08 -3.6327013e-08  8.9919365e-06 -3.6169221e-07 -9.2439598e-07
Loop time of 60.6617 on 1 procs for 351 steps with 4875 atoms

98.5% CPU use with 1 MPI tasks x 1 OpenMP threads

Minimization stats:
  Stopping criterion = force tolerance
  Energy initial, next-to-last, final = 
     -49164.0349869839  -49164.0349869856  -49164.0349869867
  Force two-norm initial, final = 0.032249106 6.6740317e-09
  Force max component initial, final = 0.02764343 1.5393797e-09
  Final line search alpha, max atom move = 1 1.5393797e-09
  Iterations, force evaluations = 351 702

MPI task timing breakdown:
Section |  min time  |  avg time  |  max time  |%varavg| %total
---------------------------------------------------------------
Pair    | 60.426     | 60.426     | 60.426     |   0.0 | 99.61
Neigh   | 0          | 0          | 0          |   0.0 |  0.00
Comm    | 0.043007   | 0.043007   | 0.043007   |   0.0 |  0.07
Output  | 0.0023626  | 0.0023626  | 0.0023626  |   0.0 |  0.00
Modify  | 0          | 0          | 0          |   0.0 |  0.00
Other   |            | 0.1904     |            |       |  0.31

Nlocal:           4875 ave        4875 max        4875 min
Histogram: 1 0 0 0 0 0 0 0 0 0
Nghost:          11117 ave       11117 max       11117 min
Histogram: 1 0 0 0 0 0 0 0 0 0
Neighs:              0 ave           0 max           0 min
Histogram: 1 0 0 0 0 0 0 0 0 0
FullNghs:       598500 ave      598500 max      598500 min
Histogram: 1 0 0 0 0 0 0 0 0 0

Total # of neighbors = 598500
Ave neighs/atom = 122.76923
Neighbor list builds = 0
Dangerous builds = 0
unfix           3
min_style       fire
minimize        0.0 1.0e-8 2000 4000
Switching to 'neigh_modify every 1 delay 0 check yes' setting during minimization
  Parameters for fire:
    dmax  delaystep dtgrow dtshrink alpha0 alphashrink tmax tmin   integrator   halfstepback   abcfire  
     0.1     20      1.1     0.5     0.25     0.99      10  0.02 eulerimplicit      yes          no     
Per MPI rank memory allocation (min/avg/max) = 6.151 | 6.151 | 6.151 Mbytes
   Step          Time           Temp          Fnorm          PotEng         KinEng           Lx             Ly             Lz            Pxx            Pyy            Pzz            Pxy            Pxz            Pyz      
      1683   1.683          0              6.3880284e-09 -49164.035      0              24.270655      21.019004      133.08612     -9.9737996e-09 -2.5717499e-08 -3.658265e-08   8.9919734e-06 -3.6167991e-07 -9.2442299e-07
      1684   1.684          2.6098574e-21  6.3809059e-09 -49164.035      1.6442465e-21  24.270655      21.019004      133.08612     -9.3441924e-09 -2.6652174e-08 -3.6968895e-08  8.9924771e-06 -3.6129818e-07 -9.2381911e-07
Loop time of 0.256738 on 1 procs for 1 steps with 4875 atoms

99.6% CPU use with 1 MPI tasks x 1 OpenMP threads

Minimization stats:
  Stopping criterion = force tolerance
  Energy initial, next-to-last, final = 
     -49164.0349869867  -49164.0349869867  -49164.0349869867
  Force two-norm initial, final = 6.3880284e-09 6.3809059e-09
  Force max component initial, final = 1.5481338e-10 1.5467744e-10
  Final line search alpha, max atom move = 0 0
  Iterations, force evaluations = 1 2

MPI task timing breakdown:
Section |  min time  |  avg time  |  max time  |%varavg| %total
---------------------------------------------------------------
Pair    | 0.25632    | 0.25632    | 0.25632    |   0.0 | 99.84
Neigh   | 0          | 0          | 0          |   0.0 |  0.00
Comm    | 0.00019234 | 0.00019234 | 0.00019234 |   0.0 |  0.07
Output  | 0          | 0          | 0          |   0.0 |  0.00
Modify  | 0          | 0          | 0          |   0.0 |  0.00
Other   |            | 0.0002244  |            |       |  0.09

Nlocal:           4875 ave        4875 max        4875 min
Histogram: 1 0 0 0 0 0 0 0 0 0
Nghost:          11117 ave       11117 max       11117 min
Histogram: 1 0 0 0 0 0 0 0 0 0
Neighs:              0 ave           0 max           0 min
Histogram: 1 0 0 0 0 0 0 0 0 0
FullNghs:       598500 ave      598500 max      598500 min
Histogram: 1 0 0 0 0 0 0 0 0 0

Total # of neighbors = 598500
Ave neighs/atom = 122.76923
Neighbor list builds = 0
Dangerous builds = 0

fix             3 all box/relax aniso 0.0 vmax 0.001
min_style       cg
minimize        0.0 1.0e-8 1000 2000
Switching to 'neigh_modify every 1 delay 0 check yes' setting during minimization
WARNING: Energy due to 3 extra global DOFs will be included in minimizer energies
 (src/min.cpp:219)
Per MPI rank memory allocation (min/avg/max) = 7.276 | 7.276 | 7.276 Mbytes
   Step          Time           Temp          Fnorm          PotEng         KinEng           Lx             Ly             Lz            Pxx            Pyy            Pzz            Pxy            Pxz            Pyz      
      1684   1.684          2.6098574e-21  6.3809718e-09 -49164.035      1.6442465e-21  24.270655      21.019004      133.08612     -9.444694e-09  -2.6669613e-08 -3.7154011e-08  8.9924262e-06 -3.6132772e-07 -9.2386716e-07
      1689   1.689          2.6098574e-21  4.0062065e-09 -49164.035      1.6442465e-21  24.270655      21.019004      133.08612      1.8097406e-09  2.0972925e-08 -4.3859759e-09  8.981893e-06  -1.2628506e-07 -5.1666845e-07
Loop time of 0.953633 on 1 procs for 5 steps with 4875 atoms

97.7% CPU use with 1 MPI tasks x 1 OpenMP threads

Minimization stats:
  Stopping criterion = force tolerance
  Energy initial, next-to-last, final = 
     -49164.0349869867  -49164.0349869863  -49164.0349869879
  Force two-norm initial, final = 6.6807942e-09 4.1085246e-09
  Force max component initial, final = 1.5744241e-09 8.8874064e-10
  Final line search alpha, max atom move = 1 8.8874064e-10
  Iterations, force evaluations = 5 10

MPI task timing breakdown:
Section |  min time  |  avg time  |  max time  |%varavg| %total
---------------------------------------------------------------
Pair    | 0.95017    | 0.95017    | 0.95017    |   0.0 | 99.64
Neigh   | 0          | 0          | 0          |   0.0 |  0.00
Comm    | 0.00066387 | 0.00066387 | 0.00066387 |   0.0 |  0.07
Output  | 0          | 0          | 0          |   0.0 |  0.00
Modify  | 0          | 0          | 0          |   0.0 |  0.00
Other   |            | 0.002803   |            |       |  0.29

Nlocal:           4875 ave        4875 max        4875 min
Histogram: 1 0 0 0 0 0 0 0 0 0
Nghost:          11117 ave       11117 max       11117 min
Histogram: 1 0 0 0 0 0 0 0 0 0
Neighs:              0 ave           0 max           0 min
Histogram: 1 0 0 0 0 0 0 0 0 0
FullNghs:       598500 ave      598500 max      598500 min
Histogram: 1 0 0 0 0 0 0 0 0 0

Total # of neighbors = 598500
Ave neighs/atom = 122.76923
Neighbor list builds = 0
Dangerous builds = 0
unfix           3
min_style       fire
minimize        0.0 1.0e-8 2000 4000
Switching to 'neigh_modify every 1 delay 0 check yes' setting during minimization
  Parameters for fire:
    dmax  delaystep dtgrow dtshrink alpha0 alphashrink tmax tmin   integrator   halfstepback   abcfire  
     0.1     20      1.1     0.5     0.25     0.99      10  0.02 eulerimplicit      yes          no     
Per MPI rank memory allocation (min/avg/max) = 6.151 | 6.151 | 6.151 Mbytes
   Step          Time           Temp          Fnorm          PotEng         KinEng           Lx             Ly             Lz            Pxx            Pyy            Pzz            Pxy            Pxz            Pyz      
      1689   1.689          0              4.0063254e-09 -49164.035      0              24.270655      21.019004      133.08612      1.6049857e-09  2.0714597e-08 -4.3594829e-09  8.9819325e-06 -1.2626221e-07 -5.1665451e-07
      1690   1.69           8.0298517e-22  4.001829e-09  -49164.035      5.0589186e-22  24.270655      21.019004      133.08612      2.0237807e-09  2.1209706e-08 -4.2495286e-09  8.9819261e-06 -1.2616618e-07 -5.1653162e-07
Loop time of 0.255486 on 1 procs for 1 steps with 4875 atoms

100.5% CPU use with 1 MPI tasks x 1 OpenMP threads

Minimization stats:
  Stopping criterion = force tolerance
  Energy initial, next-to-last, final = 
     -49164.0349869879  -49164.0349869879  -49164.0349869879
  Force two-norm initial, final = 4.0063254e-09 4.001829e-09
  Force max component initial, final = 1.0281687e-10 1.0281881e-10
  Final line search alpha, max atom move = 0 0
  Iterations, force evaluations = 1 2

MPI task timing breakdown:
Section |  min time  |  avg time  |  max time  |%varavg| %total
---------------------------------------------------------------
Pair    | 0.25499    | 0.25499    | 0.25499    |   0.0 | 99.81
Neigh   | 0          | 0          | 0          |   0.0 |  0.00
Comm    | 0.0002302  | 0.0002302  | 0.0002302  |   0.0 |  0.09
Output  | 0          | 0          | 0          |   0.0 |  0.00
Modify  | 0          | 0          | 0          |   0.0 |  0.00
Other   |            | 0.0002621  |            |       |  0.10

Nlocal:           4875 ave        4875 max        4875 min
Histogram: 1 0 0 0 0 0 0 0 0 0
Nghost:          11117 ave       11117 max       11117 min
Histogram: 1 0 0 0 0 0 0 0 0 0
Neighs:              0 ave           0 max           0 min
Histogram: 1 0 0 0 0 0 0 0 0 0
FullNghs:       598500 ave      598500 max      598500 min
Histogram: 1 0 0 0 0 0 0 0 0 0

Total # of neighbors = 598500
Ave neighs/atom = 122.76923
Neighbor list builds = 0
Dangerous builds = 0

fix             3 all box/relax aniso 0.0 vmax 0.001
min_style       cg
minimize        0.0 1.0e-8 1000 2000
Switching to 'neigh_modify every 1 delay 0 check yes' setting during minimization
WARNING: Energy due to 3 extra global DOFs will be included in minimizer energies
 (src/min.cpp:219)
Per MPI rank memory allocation (min/avg/max) = 7.276 | 7.276 | 7.276 Mbytes
   Step          Time           Temp          Fnorm          PotEng         KinEng           Lx             Ly             Lz            Pxx            Pyy            Pzz            Pxy            Pxz            Pyz      
      1690   1.69           8.0298517e-22  4.0030785e-09 -49164.035      5.0589186e-22  24.270655      21.019004      133.08612      1.737325e-09   2.0781374e-08 -4.256068e-09   8.9818904e-06 -1.2621655e-07 -5.1648647e-07
      1694   1.694          8.0298517e-22  2.3019483e-09 -49164.035      5.0589186e-22  24.270655      21.019004      133.08612      4.3087501e-08  4.3031057e-08  3.9175821e-08  8.987558e-06  -5.1703906e-08 -3.8761511e-07
Loop time of 0.775936 on 1 procs for 4 steps with 4875 atoms

99.2% CPU use with 1 MPI tasks x 1 OpenMP threads

Minimization stats:
  Stopping criterion = force tolerance
  Energy initial, next-to-last, final = 
     -49164.0349869879  -49164.0349869853  -49164.0349869877
  Force two-norm initial, final = 4.1034233e-09 3.8358433e-09
  Force max component initial, final = 8.8062357e-10 1.8258595e-09
  Final line search alpha, max atom move = 1 1.8258595e-09
  Iterations, force evaluations = 4 8

MPI task timing breakdown:
Section |  min time  |  avg time  |  max time  |%varavg| %total
---------------------------------------------------------------
Pair    | 0.77303    | 0.77303    | 0.77303    |   0.0 | 99.63
Neigh   | 0          | 0          | 0          |   0.0 |  0.00
Comm    | 0.00058252 | 0.00058252 | 0.00058252 |   0.0 |  0.08
Output  | 0          | 0          | 0          |   0.0 |  0.00
Modify  | 0          | 0          | 0          |   0.0 |  0.00
Other   |            | 0.002326   |            |       |  0.30

Nlocal:           4875 ave        4875 max        4875 min
Histogram: 1 0 0 0 0 0 0 0 0 0
Nghost:          11117 ave       11117 max       11117 min
Histogram: 1 0 0 0 0 0 0 0 0 0
Neighs:              0 ave           0 max           0 min
Histogram: 1 0 0 0 0 0 0 0 0 0
FullNghs:       598500 ave      598500 max      598500 min
Histogram: 1 0 0 0 0 0 0 0 0 0

Total # of neighbors = 598500
Ave neighs/atom = 122.76923
Neighbor list builds = 0
Dangerous builds = 0
unfix           3
min_style       fire
minimize        0.0 1.0e-8 2000 4000
Switching to 'neigh_modify every 1 delay 0 check yes' setting during minimization
  Parameters for fire:
    dmax  delaystep dtgrow dtshrink alpha0 alphashrink tmax tmin   integrator   halfstepback   abcfire  
     0.1     20      1.1     0.5     0.25     0.99      10  0.02 eulerimplicit      yes          no     
Per MPI rank memory allocation (min/avg/max) = 6.151 | 6.151 | 6.151 Mbytes
   Step          Time           Temp          Fnorm          PotEng         KinEng           Lx             Ly             Lz            Pxx            Pyy            Pzz            Pxy            Pxz            Pyz      
      1694   1.694          0              2.302002e-09  -49164.035      0              24.270655      21.019004      133.08612      4.3188925e-08  4.3022861e-08  3.922189e-08   8.9876228e-06 -5.167724e-08  -3.8759192e-07
      1695   1.695          3.5602192e-22  2.300765e-09  -49164.035      2.2429877e-22  24.270655      21.019004      133.08612      4.3153608e-08  4.2924644e-08  3.9059411e-08  8.9876152e-06 -5.1634186e-08 -3.8746337e-07
Loop time of 0.254496 on 1 procs for 1 steps with 4875 atoms

94.2% CPU use with 1 MPI tasks x 1 OpenMP threads

Minimization stats:
  Stopping criterion = force tolerance
  Energy initial, next-to-last, final = 
     -49164.0349869877  -49164.0349869877  -49164.0349869877
  Force two-norm initial, final = 2.302002e-09 2.300765e-09
  Force max component initial, final = 6.4456995e-11 6.446238e-11
  Final line search alpha, max atom move = 0 0
  Iterations, force evaluations = 1 2

MPI task timing breakdown:
Section |  min time  |  avg time  |  max time  |%varavg| %total
---------------------------------------------------------------
Pair    | 0.25406    | 0.25406    | 0.25406    |   0.0 | 99.83
Neigh   | 0          | 0          | 0          |   0.0 |  0.00
Comm    | 0.00020489 | 0.00020489 | 0.00020489 |   0.0 |  0.08
Output  | 0          | 0          | 0          |   0.0 |  0.00
Modify  | 0          | 0          | 0          |   0.0 |  0.00
Other   |            | 0.000227   |            |       |  0.09

Nlocal:           4875 ave        4875 max        4875 min
Histogram: 1 0 0 0 0 0 0 0 0 0
Nghost:          11117 ave       11117 max       11117 min
Histogram: 1 0 0 0 0 0 0 0 0 0
Neighs:              0 ave           0 max           0 min
Histogram: 1 0 0 0 0 0 0 0 0 0
FullNghs:       598500 ave      598500 max      598500 min
Histogram: 1 0 0 0 0 0 0 0 0 0

Total # of neighbors = 598500
Ave neighs/atom = 122.76923
Neighbor list builds = 0
Dangerous builds = 0

fix             3 all box/relax aniso 0.0 vmax 0.001
min_style       cg
minimize        0.0 1.0e-8 1000 2000
Switching to 'neigh_modify every 1 delay 0 check yes' setting during minimization
WARNING: Energy due to 3 extra global DOFs will be included in minimizer energies
 (src/min.cpp:219)
Per MPI rank memory allocation (min/avg/max) = 7.276 | 7.276 | 7.276 Mbytes
   Step          Time           Temp          Fnorm          PotEng         KinEng           Lx             Ly             Lz            Pxx            Pyy            Pzz            Pxy            Pxz            Pyz      
      1695   1.695          3.5602192e-22  2.3010779e-09 -49164.035      2.2429877e-22  24.270655      21.019004      133.08612      4.3150715e-08  4.2950215e-08  3.912426e-08   8.9876058e-06 -5.1647509e-08 -3.8747125e-07
      1696   1.696          3.5602192e-22  2.3002023e-09 -49164.035      2.2429877e-22  24.270655      21.019004      133.08612     -2.3156942e-08 -2.3439562e-08 -2.3351154e-08  8.9875514e-06 -5.1650409e-08 -3.874239e-07 
Loop time of 0.261789 on 1 procs for 1 steps with 4875 atoms

95.7% CPU use with 1 MPI tasks x 1 OpenMP threads

Minimization stats:
  Stopping criterion = force tolerance
  Energy initial, next-to-last, final = 
     -49164.0349869877  -49164.0349869877  -49164.0349869884
  Force two-norm initial, final = 3.8340247e-09 2.8669821e-09
  Force max component initial, final = 1.8285382e-09 9.9326591e-10
  Final line search alpha, max atom move = 1 9.9326591e-10
  Iterations, force evaluations = 1 2

MPI task timing breakdown:
Section |  min time  |  avg time  |  max time  |%varavg| %total
---------------------------------------------------------------
Pair    | 0.26069    | 0.26069    | 0.26069    |   0.0 | 99.58
Neigh   | 0          | 0          | 0          |   0.0 |  0.00
Comm    | 0.00032033 | 0.00032033 | 0.00032033 |   0.0 |  0.12
Output  | 0          | 0          | 0          |   0.0 |  0.00
Modify  | 0          | 0          | 0          |   0.0 |  0.00
Other   |            | 0.000779   |            |       |  0.30

Nlocal:           4875 ave        4875 max        4875 min
Histogram: 1 0 0 0 0 0 0 0 0 0
Nghost:          11117 ave       11117 max       11117 min
Histogram: 1 0 0 0 0 0 0 0 0 0
Neighs:              0 ave           0 max           0 min
Histogram: 1 0 0 0 0 0 0 0 0 0
FullNghs:       598500 ave      598500 max      598500 min
Histogram: 1 0 0 0 0 0 0 0 0 0

Total # of neighbors = 598500
Ave neighs/atom = 122.76923
Neighbor list builds = 0
Dangerous builds = 0
unfix           3
min_style       fire
minimize        0.0 1.0e-8 2000 4000
Switching to 'neigh_modify every 1 delay 0 check yes' setting during minimization
  Parameters for fire:
    dmax  delaystep dtgrow dtshrink alpha0 alphashrink tmax tmin   integrator   halfstepback   abcfire  
     0.1     20      1.1     0.5     0.25     0.99      10  0.02 eulerimplicit      yes          no     
Per MPI rank memory allocation (min/avg/max) = 6.151 | 6.151 | 6.151 Mbytes
   Step          Time           Temp          Fnorm          PotEng         KinEng           Lx             Ly             Lz            Pxx            Pyy            Pzz            Pxy            Pxz            Pyz      
      1696   1.696          0              2.3006841e-09 -49164.035      0              24.270655      21.019004      133.08612     -2.306736e-08  -2.3360607e-08 -2.3187753e-08  8.9875715e-06 -5.1631729e-08 -3.8742399e-07
      1697   1.697          3.555936e-22   2.299476e-09  -49164.035      2.2402893e-22  24.270655      21.019004      133.08612     -2.3044745e-08 -2.3435831e-08 -2.3365784e-08  8.9875734e-06 -5.1593328e-08 -3.8729895e-07
Loop time of 0.252502 on 1 procs for 1 steps with 4875 atoms

99.8% CPU use with 1 MPI tasks x 1 OpenMP threads

Minimization stats:
  Stopping criterion = force tolerance
  Energy initial, next-to-last, final = 
     -49164.0349869884  -49164.0349869884  -49164.0349869884
  Force two-norm initial, final = 2.3006841e-09 2.299476e-09
  Force max component initial, final = 6.4426187e-11 6.4427463e-11
  Final line search alpha, max atom move = 0 0
  Iterations, force evaluations = 1 2

MPI task timing breakdown:
Section |  min time  |  avg time  |  max time  |%varavg| %total
---------------------------------------------------------------
Pair    | 0.25205    | 0.25205    | 0.25205    |   0.0 | 99.82
Neigh   | 0          | 0          | 0          |   0.0 |  0.00
Comm    | 0.00021383 | 0.00021383 | 0.00021383 |   0.0 |  0.08
Output  | 0          | 0          | 0          |   0.0 |  0.00
Modify  | 0          | 0          | 0          |   0.0 |  0.00
Other   |            | 0.000235   |            |       |  0.09

Nlocal:           4875 ave        4875 max        4875 min
Histogram: 1 0 0 0 0 0 0 0 0 0
Nghost:          11117 ave       11117 max       11117 min
Histogram: 1 0 0 0 0 0 0 0 0 0
Neighs:              0 ave           0 max           0 min
Histogram: 1 0 0 0 0 0 0 0 0 0
FullNghs:       598500 ave      598500 max      598500 min
Histogram: 1 0 0 0 0 0 0 0 0 0

Total # of neighbors = 598500
Ave neighs/atom = 122.76923
Neighbor list builds = 0
Dangerous builds = 0

fix             3 all box/relax aniso 0.0 vmax 0.001
min_style       cg
minimize        0.0 1.0e-8 1000 2000
Switching to 'neigh_modify every 1 delay 0 check yes' setting during minimization
WARNING: Energy due to 3 extra global DOFs will be included in minimizer energies
 (src/min.cpp:219)
Per MPI rank memory allocation (min/avg/max) = 7.276 | 7.276 | 7.276 Mbytes
   Step          Time           Temp          Fnorm          PotEng         KinEng           Lx             Ly             Lz            Pxx            Pyy            Pzz            Pxy            Pxz            Pyz      
      1697   1.697          3.555936e-22   2.2998829e-09 -49164.035      2.2402893e-22  24.270655      21.019004      133.08612     -2.3071091e-08 -2.3405796e-08 -2.3224977e-08  8.9875566e-06 -5.1615791e-08 -3.8730522e-07
      1698   1.698          3.555936e-22   2.3005749e-09 -49164.035      2.2402893e-22  24.270655      21.019004      133.08612      4.3027242e-08  4.2507421e-08  4.071426e-08   8.987571e-06  -5.1641792e-08 -3.8726262e-07
Loop time of 0.252434 on 1 procs for 1 steps with 4875 atoms

99.4% CPU use with 1 MPI tasks x 1 OpenMP threads

Minimization stats:
  Stopping criterion = force tolerance
  Energy initial, next-to-last, final = 
     -49164.0349869884  -49164.0349869884  -49164.0349869877
  Force two-norm initial, final = 2.8631446e-09 3.8520546e-09
  Force max component initial, final = 9.9183506e-10 1.823306e-09
  Final line search alpha, max atom move = 1 1.823306e-09
  Iterations, force evaluations = 1 2

MPI task timing breakdown:
Section |  min time  |  avg time  |  max time  |%varavg| %total
---------------------------------------------------------------
Pair    | 0.25165    | 0.25165    | 0.25165    |   0.0 | 99.69
Neigh   | 0          | 0          | 0          |   0.0 |  0.00
Comm    | 0.00017951 | 0.00017951 | 0.00017951 |   0.0 |  0.07
Output  | 0          | 0          | 0          |   0.0 |  0.00
Modify  | 0          | 0          | 0          |   0.0 |  0.00
Other   |            | 0.0006039  |            |       |  0.24

Nlocal:           4875 ave        4875 max        4875 min
Histogram: 1 0 0 0 0 0 0 0 0 0
Nghost:          11117 ave       11117 max       11117 min
Histogram: 1 0 0 0 0 0 0 0 0 0
Neighs:              0 ave           0 max           0 min
Histogram: 1 0 0 0 0 0 0 0 0 0
FullNghs:       598500 ave      598500 max      598500 min
Histogram: 1 0 0 0 0 0 0 0 0 0

Total # of neighbors = 598500
Ave neighs/atom = 122.76923
Neighbor list builds = 0
Dangerous builds = 0
unfix           3

write_data      fire_cg_${name}.data
write_data      fire_cg_raw_Ta6Fe7_unitcell_5x5x5.data
System init for write_data ...

write_data      bi_minimised.data
System init for write_data ...

print """- step: $(step)
  atoms: $(atoms)
  temp: $(temp)
  press: $(press)
  pe: $(pe)
  ke: $(ke)
  etotal: $(etotal)
  vol: $(vol)
  avecx: $(avecx)
  avecy: $(avecy)
  avecz: $(avecz)
  bvecx: $(bvecx)
  bvecy: $(bvecy)
  bvecz: $(bvecz)
  cvecx: $(cvecx)
  cvecy: $(cvecy)
  cvecz: $(cvecz)
  lx: $(lx)
  ly: $(ly)
  lz: $(lz)
  cella: $(cella)
  cellb: $(cellb)
  cellc: $(cellc)
  cellalpha: $(cellalpha)
  cellbeta: $(cellbeta)
  cellgamma: $(cellgamma)
  pxx: $(pxx)
  pyy: $(pyy)
  pzz: $(pzz)
  pxy: $(pxy)
  pyz: $(pyz)
  pxz: $(pxz)
  xlo: $(xlo)
  xhi: $(xhi)
  ylo: $(ylo)
  yhi: $(yhi)
  zlo: $(zlo)
  zhi: $(zhi)
  xy: $(xy)
  xz: $(xz)
  yz: $(yz)
""" file bi_minimised.data.yaml screen yes universe no
- step: 1698
  atoms: 4875
  temp: 3.555936008027373821e-22
  press: 4.2082974362988761842e-08
  pe: -49164.034986987724551
  ke: 2.240289278736646594e-22
  etotal: -49164.034986987724551
  vol: 67893.218824359224527
  avecx: 24.270655320927872367
  avecy: 0
  avecz: 0
  bvecx: -12.135327660730002464
  bvecy: 21.01900407441856089
  bvecz: 0
  cvecx: 0
  cvecy: 0
  cvecz: 133.08611946512257873
  lx: 24.270655320927872367
  ly: 21.01900407441856089
  lz: 133.08611946512257873
  cella: 24.270655320927872367
  cellb: 24.270655321060097265
  cellc: 133.08611946512257873
  cellalpha: 90
  cellbeta: 90
  cellgamma: 120.00000000054507154
  pxx: 4.3027241852003263279e-08
  pyy: 4.250742139412146236e-08
  pzz: 4.0714259842841573122e-08
  pxy: 8.9875710016120586839e-06
  pyz: -3.8726262034270869954e-07
  pxz: -5.1641791953534995212e-08
  xlo: -4.8526579304139492166
  xhi: 19.417997390513924927
  ylo: -8.4071763727092800877
  yhi: 12.611827701709280802
  zlo: -53.127480056961324806
  zhi: 79.958639408161261031
  xy: -12.135327660730002464
  xz: 0
  yz: 0

[GRACE:debug, proc #0]: Data preparation timer: 2.40261e+07 mcs, graph execution time: 2.45362e+08 mcs, data preparation time fraction: 8.92 %
Total wall time: 0:04:32
