
thermo          10
thermo_style    custom step time temp fnorm pe ke lx ly lz pxx pyy pzz pxy pxz pyz

timestep        0.001

min_style       fire
minimize        0.0 1.0e-8 2000 4000

CITE-CITE-CITE-CITE-CITE-CITE-CITE-CITE-CITE-CITE-CITE-CITE-CITE

Your simulation uses code contributions which should be cited:

- Type Label Framework: https://doi.org/10.1021/acs.jpcb.3c08419

@Article{Gissinger24,
 author = {Jacob R. Gissinger, Ilia Nikiforov, Yaser Afshar, Brendon Waters, Moon-ki Choi, Daniel S. Karls, Alexander Stukowski, Wonpil Im, Hendrik Heinz, Axel Kohlmeyer, and Ellad B. Tadmor},
 title = {Type Label Framework for Bonded Force Fields in LAMMPS},
 journal = {J. Phys. Chem. B},
 year =    2024,
 volume =  128,
 number =  13,
 pages =   {3282–-3297}
}

CITE-CITE-CITE-CITE-CITE-CITE-CITE-CITE-CITE-CITE-CITE-CITE-CITE

Switching to 'neigh_modify every 1 delay 0 check yes' setting during minimization
Neighbor list info ...
  update: every = 1 steps, delay = 0 steps, check = yes
  max neighbors/atom: 2000, page size: 100000
  master list distance cutoff = 7.4
  ghost atom cutoff = 7.4
  binsize = 3.7, bins = 2 8 924
  1 neighbor lists, perpetual/occasional/extra = 1 0 0
  (1) pair grace, perpetual
      attributes: full, newton on
      pair build: full/bin/atomonly
      stencil: full/bin/3d
      bin: standard
  Parameters for fire:
    dmax  delaystep dtgrow dtshrink alpha0 alphashrink tmax tmin   integrator   halfstepback   abcfire  
     0.1     20      1.1     0.5     0.25     0.99      10  0.02 eulerimplicit      yes          no     
[GRACE] Atoms padding: new num. of atoms = 32851 (incl. 0.989% fake atoms)
[GRACE] Neighbours padding: extending new num. of neighbours = 2092373 (incl. 0.990% fake neighbours)
Per MPI rank memory allocation (min/avg/max) = 51.47 | 51.47 | 51.47 Mbytes
   Step          Time           Temp          Fnorm          PotEng         KinEng           Lx             Ly             Lz            Pxx            Pyy            Pzz            Pxy            Pxz            Pyz      
         0   0              0              126.17124     -335658.64      0              4.9770056      27.83345       3417.964       3425.1288      1851.8368      3258.1093     -0.0037285236  -2.1613439e-05 -512.16888    
        10   0.01           15.534832      112.95566     -335735.1       65.311327      4.9770056      27.83345       3417.964       3087.4133      1374.9534      2905.6291     -0.0022150307  -0.00039306027 -557.50238    
        20   0.02           53.269425      79.6437       -335890.85      223.95458      4.9770056      27.83345       3417.964       2430.827       1065.9578      2285.9261      0.00060399828 -0.0010659415  -444.28712    
        30   0.070738431    88.648862      18.725356     -336059.02      372.69632      4.9770056      27.83345       3417.964       1506.4906      2108.6192      1570.3066      0.0034993414  -0.00088415221  196.40593    
        40   0.075949967    0.08822214     8.5855803     -336078.62      0.37090231     4.9770056      27.83345       3417.964       105.53011      344.31117      130.80632      0.0002885874  -0.00012424328  78.019332    
        50   0.094937458    0.57785017     4.4369257     -336080.8       2.4293897      4.9770056      27.83345       3417.964       80.090176      252.58168      98.331703      0.00079154171 -5.6550457e-05  56.428128    
        60   0.16679752     0.85472997     0.83105325    -336082.02      3.5934439      4.9770056      27.83345       3417.964       58.563265      51.358841      57.736974      0.001843639    0.00033673401 -2.1026395    
        70   0.12950437     0.00034347953  0.38316114    -336082.08      0.0014440519   4.9770056      27.83345       3417.964       4.5782598     -25.096974      1.3682872      0.00047381905  6.4794624e-05 -9.4212449    
        80   0.148005       0.0015796222   0.21300746    -336082.08      0.0066410258   4.9770056      27.83345       3417.964       1.5112196     -14.048308     -0.20103221     0.00046449446  5.9374543e-05 -4.8234698    
        90   0.29497487     0.0022765394   0.047654957   -336082.09      0.0095709955   4.9770056      27.83345       3417.964      -1.6648975      0.40936117    -1.5063224      0.00084342859  0.00019383468  0.91988985   
       100   0.38640851     7.9209007e-09  0.0072178391  -336082.09      3.3300942e-08  4.9770056      27.83345       3417.964       0.45418347    -0.43030748     0.29923105    -1.1943555e-05  8.3521831e-06 -0.043337812  
       110   0.42504936     4.7153802e-07  0.0034644253  -336082.09      1.9824336e-06  4.9770056      27.83345       3417.964       0.28534207    -0.17583568     0.17530607    -1.2488899e-05  4.9902526e-06  0.094535368  
       120   0.46369021     4.4903588e-07  0.0012182724  -336082.09      1.8878305e-06  4.9770056      27.83345       3417.964       0.013286544    0.00047103352 -0.049181801   -9.0838317e-06  4.2703543e-07  0.24056974   
       130   1.3            5.7278995e-07  0.00067909176 -336082.09      2.4081156e-06  4.9770056      27.83345       3417.964       0.015923034   -0.01118712    -0.048069376   -1.8861192e-06 -2.8554013e-06  0.23590947   
       140   1.4            6.8160111e-07  0.00029887169 -336082.09      2.865578e-06   4.9770056      27.83345       3417.964       0.008286961   -0.008612078   -0.054624996    1.3106273e-06 -1.926794e-06   0.23922812   
       150   1.5            4.0374926e-07  0.00026267959 -336082.09      1.6974371e-06  4.9770056      27.83345       3417.964       0.007523472   -0.00574825    -0.055001275   -4.4748415e-08  1.4177081e-08  0.24040729   
       160   1.6            1.970756e-07   0.00013001026 -336082.09      8.2854252e-07  4.9770056      27.83345       3417.964       0.0068876634  -0.011391321   -0.056168028   -1.9565128e-09 -1.6364163e-08  0.23877685   
       170   1.7            1.5060071e-07  0.000104565   -336082.09      6.3315344e-07  4.9770056      27.83345       3417.964       0.0068888812  -0.010977654   -0.05612303    -8.0831356e-09  2.6067529e-09  0.23891077   
       180   1.8            1.2330162e-07  0.00010696894 -336082.09      5.1838298e-07  4.9770056      27.83345       3417.964       0.0062307557  -0.013226102   -0.05694991    -1.7016179e-09  9.8844707e-10  0.23839241   
       190   1.9            1.0499143e-07  7.6833245e-05 -336082.09      4.4140352e-07  4.9770056      27.83345       3417.964       0.0066235042  -0.011709822   -0.056437976    1.3261224e-09 -4.0021536e-10  0.23875809   
       200   2              9.3594974e-08  6.1527325e-05 -336082.09      3.934907e-07   4.9770056      27.83345       3417.964       0.0067799899  -0.011004393   -0.056223274    1.1268308e-09 -4.0808878e-10  0.23893665   
       210   2.1            8.7260577e-08  5.808202e-05  -336082.09      3.6685972e-07  4.9770056      27.83345       3417.964       0.0067371707  -0.01118373    -0.056280608    5.9690449e-10 -3.5565487e-10  0.23889194   
       220   2.2            7.9221334e-08  4.9174692e-05 -336082.09      3.3306124e-07  4.9770056      27.83345       3417.964       0.0067548219  -0.011151542   -0.05626143     8.9833503e-11 -2.0270476e-10  0.23889651   
       230   2.3            7.6831443e-08  4.1327228e-05 -336082.09      3.2301369e-07  4.9770056      27.83345       3417.964       0.0068282999  -0.010840413   -0.056162768   -2.2763111e-10 -7.4692737e-11  0.23897373   
       240   2.4            7.5748933e-08  3.9081568e-05 -336082.09      3.1846262e-07  4.9770056      27.83345       3417.964       0.0067871091  -0.011027258   -0.056219439   -5.2806385e-10 -1.0205574e-10  0.23892611   
       250   2.5            7.4281532e-08  3.6996709e-05 -336082.09      3.1229339e-07  4.9770056      27.83345       3417.964       0.0067817593  -0.01103096    -0.056224636   -1.1080096e-10 -1.417501e-10   0.23892649   
       260   2.6            7.2142597e-08  3.0409179e-05 -336082.09      3.0330091e-07  4.9770056      27.83345       3417.964       0.0068585887  -0.010730378   -0.056124084   -3.1777752e-10  1.1949786e-11  0.23899925   
       270   2.7            7.2149898e-08  2.6874039e-05 -336082.09      3.033316e-07   4.9770056      27.83345       3417.964       0.0068792691  -0.010645574   -0.056096622    2.625657e-10   4.2553088e-11  0.23902001   
       280   2.8            7.2682065e-08  2.5018382e-05 -336082.09      3.0556893e-07  4.9770056      27.83345       3417.964       0.006864693   -0.010702441   -0.056115706   -6.3066856e-11  1.1657611e-10  0.23900611   
       290   2.9            7.3145029e-08  2.317181e-05  -336082.09      3.0751532e-07  4.9770056      27.83345       3417.964       0.0068844262  -0.010620178   -0.056089358    3.4014501e-12  1.0541702e-10  0.23902636   
       300   3              7.3393576e-08  2.1476531e-05 -336082.09      3.0856026e-07  4.9770056      27.83345       3417.964       0.0068705862  -0.010680644   -0.056108161    1.0422682e-10  8.9331632e-12  0.23901107   
       310   3.1            7.4321292e-08  1.9021771e-05 -336082.09      3.1246055e-07  4.9770056      27.83345       3417.964       0.0069088143  -0.010524495   -0.056057439    2.206758e-10  -1.1285776e-11  0.23904938   
       320   3.2            7.5420701e-08  1.7256492e-05 -336082.09      3.1708267e-07  4.9770056      27.83345       3417.964       0.0069009296  -0.010559386   -0.056068206   -2.089671e-10   5.5586517e-11  0.23904049   
       330   3.3            7.6627832e-08  1.545119e-05  -336082.09      3.2215768e-07  4.9770056      27.83345       3417.964       0.0069332558  -0.010429621   -0.056025557    1.926123e-10  -2.3742288e-10  0.23907215   
       340   3.4            7.7987413e-08  1.4351061e-05 -336082.09      3.2787361e-07  4.9770056      27.83345       3417.964       0.0069511008  -0.010357895   -0.056002012   -3.0986942e-10 -7.2921994e-12  0.23908961   
       350   3.5            7.9136094e-08  1.345036e-05  -336082.09      3.3270288e-07  4.9770056      27.83345       3417.964       0.0069212708  -0.010476746   -0.0560413      6.8289212e-11 -6.2842166e-11  0.23906054   
       360   3.6            8.0064131e-08  1.2196714e-05 -336082.09      3.3660452e-07  4.9770056      27.83345       3417.964       0.0069448214  -0.010382226   -0.056010235   -2.8385959e-10  1.8849826e-11  0.23908359   
       370   3.7            8.0851424e-08  1.1388575e-05 -336082.09      3.3991444e-07  4.9770056      27.83345       3417.964       0.0069341239  -0.010424316   -0.056024273    1.6025352e-10  3.5790563e-12  0.2390733    
       380   3.8            8.1446618e-08  1.0617631e-05 -336082.09      3.4241675e-07  4.9770056      27.83345       3417.964       0.0069284281  -0.010446416   -0.05603172    -1.452728e-10   1.4763304e-10  0.2390679    
       390   3.9            8.180707e-08   9.8390009e-06 -336082.09      3.4393216e-07  4.9770056      27.83345       3417.964       0.0069294121  -0.010443066   -0.056030495    3.0633757e-10 -1.0420412e-10  0.23906862   
       400   4              8.1973564e-08  9.2145587e-06 -336082.09      3.4463213e-07  4.9770056      27.83345       3417.964       0.0069325849  -0.010429632   -0.056026239    4.2984702e-11  3.2052606e-11  0.23907192   
       410   4.1            8.1907282e-08  8.6130638e-06 -336082.09      3.4435346e-07  4.9770056      27.83345       3417.964       0.0069392007  -0.010403812   -0.056017593    7.1716464e-12  2.3610486e-10  0.23907813   
       420   4.2            8.1654835e-08  8.1061976e-06 -336082.09      3.4329213e-07  4.9770056      27.83345       3417.964       0.0069338111  -0.010425901   -0.05602476     3.7715935e-10 -1.1731417e-10  0.23907266   
       430   4.3            8.1217496e-08  7.6467617e-06 -336082.09      3.4145348e-07  4.9770056      27.83345       3417.964       0.0069370837  -0.010412257   -0.056020393    2.0045811e-11 -6.7636624e-11  0.239076     
       440   4.4            8.0614884e-08  7.2998196e-06 -336082.09      3.3891998e-07  4.9770056      27.83345       3417.964       0.0069310429  -0.010435127   -0.056028221    1.0161879e-10 -7.3871691e-11  0.2390705    
       450   4.5            7.984964e-08   6.8959601e-06 -336082.09      3.3570276e-07  4.9770056      27.83345       3417.964       0.0069341735  -0.010423013   -0.056024141    1.3063203e-10  1.0447253e-10  0.2390734    
       460   4.6            7.8949502e-08  6.5719426e-06 -336082.09      3.3191841e-07  4.9770056      27.83345       3417.964       0.0069359207  -0.010416618   -0.056021905    2.8899794e-11 -2.2645521e-11  0.23907489   
       470   4.7            7.7932288e-08  6.3148073e-06 -336082.09      3.2764185e-07  4.9770056      27.83345       3417.964       0.0069349903  -0.010420441   -0.056023141    1.3988815e-10 -1.201909e-10   0.23907393   
       480   4.8            7.6811357e-08  6.069446e-06  -336082.09      3.2292925e-07  4.9770056      27.83345       3417.964       0.0069323332  -0.010430359   -0.056026568    7.5381182e-12 -2.1519804e-10  0.23907155   
       490   4.9            7.5609767e-08  5.8665254e-06 -336082.09      3.1787754e-07  4.9770056      27.83345       3417.964       0.0069344321  -0.010422108   -0.056023817    3.4560732e-10  5.502596e-11   0.23907355   
       500   5              7.4341488e-08  5.6761557e-06 -336082.09      3.1254546e-07  4.9770056      27.83345       3417.964       0.0069366059  -0.010413514   -0.056020961   -6.6003962e-11 -3.9839323e-10  0.23907563   
       510   5.1            7.3025676e-08  5.5277933e-06 -336082.09      3.0701354e-07  4.9770056      27.83345       3417.964       0.0069336458  -0.010424733   -0.056024797    1.9387515e-10 -1.4127374e-10  0.23907293   
       520   5.2            7.1675481e-08  5.3756751e-06 -336082.09      3.0133707e-07  4.9770056      27.83345       3417.964       0.0069334811  -0.010425204   -0.056024996   -2.7226561e-11  4.0018906e-10  0.23907283   
       530   5.3            7.0310379e-08  5.2892133e-06 -336082.09      2.9559792e-07  4.9770056      27.83345       3417.964       0.0069370028  -0.010412299   -0.056020477    2.7803161e-11  1.2927513e-10  0.23907588   
       540   5.4            6.894158e-08   5.1856934e-06 -336082.09      2.8984324e-07  4.9770056      27.83345       3417.964       0.0069373984  -0.010410826   -0.056019965   -1.1531837e-10 -2.3893667e-10  0.23907623   
       550   5.5            6.7581329e-08  5.1196693e-06 -336082.09      2.8412449e-07  4.9770056      27.83345       3417.964       0.0069373602  -0.01041122    -0.056020038   -3.2403112e-10 -2.9811208e-10  0.23907611   
       560   5.6            6.6243052e-08  5.090218e-06  -336082.09      2.7849813e-07  4.9770056      27.83345       3417.964       0.006937541   -0.010411126   -0.056019867   -3.3368574e-10 -1.8987417e-10  0.23907608   
       570   5.7            6.4933027e-08  5.0565149e-06 -336082.09      2.7299054e-07  4.9770056      27.83345       3417.964       0.0069356109  -0.010418127   -0.056022333   -1.0590567e-10 -9.1039957e-11  0.23907443   
       580   5.8            6.3660912e-08  5.0408639e-06 -336082.09      2.6764233e-07  4.9770056      27.83345       3417.964       0.0069319995  -0.010429728   -0.056026785    2.3294119e-10 -2.2665748e-10  0.23907183   
       590   5.9            6.2432811e-08  5.0396058e-06 -336082.09      2.6247916e-07  4.9770056      27.83345       3417.964       0.0069359502  -0.010416419   -0.056021842   -1.8915745e-10 -1.9237555e-10  0.23907488   
       600   6              6.1251932e-08  5.06785e-06   -336082.09      2.5751453e-07  4.9770056      27.83345       3417.964       0.0069348537  -0.01042209    -0.056023424   -4.9117655e-10 -4.8275267e-11  0.23907339   
       610   6.1            6.012274e-08   5.1031156e-06 -336082.09      2.5276719e-07  4.9770056      27.83345       3417.964       0.0069347088  -0.010418386   -0.056023159   -4.6607441e-10  6.4135351e-11  0.23907465   
       620   6.2            5.9047352e-08  5.1526763e-06 -336082.09      2.4824606e-07  4.9770056      27.83345       3417.964       0.0069335415  -0.010427353   -0.056025152   -3.1907962e-10  4.6732798e-11  0.23907211   
       630   6.3            5.8025899e-08  5.2031198e-06 -336082.09      2.4395169e-07  4.9770056      27.83345       3417.964       0.0069371179  -0.010413634   -0.056020497   -1.3899396e-10  2.0192451e-10  0.23907542   
       640   6.4            5.7058816e-08  5.260169e-06  -336082.09      2.3988589e-07  4.9770056      27.83345       3417.964       0.0069339486  -0.010417403   -0.056023726   -1.3934475e-10  3.2634715e-10  0.23907522   
       650   6.5            5.6145241e-08  5.3582301e-06 -336082.09      2.3604505e-07  4.9770056      27.83345       3417.964       0.0069328154  -0.0104294     -0.056026008   -1.9350018e-10  2.5885113e-11  0.23907169   
       660   6.6            5.5283362e-08  5.4371698e-06 -336082.09      2.3242155e-07  4.9770056      27.83345       3417.964       0.0069341947  -0.010431567   -0.056025      -8.7016068e-11 -2.4698047e-10  0.23907054   
       670   6.7            5.4471692e-08  5.5450401e-06 -336082.09      2.2900913e-07  4.9770056      27.83345       3417.964       0.006934705   -0.010424311   -0.056023776    4.0965396e-11 -2.2236665e-10  0.23907274   
       680   6.8            5.3707545e-08  5.6356091e-06 -336082.09      2.2579652e-07  4.9770056      27.83345       3417.964       0.0069346201  -0.010416445   -0.056023021    3.3795567e-10  1.3034965e-12  0.23907533   
       690   6.9            5.2988671e-08  5.7580826e-06 -336082.09      2.2277424e-07  4.9770056      27.83345       3417.964       0.0069344007  -0.010413872   -0.056022943   -4.3330948e-10  1.4580141e-10  0.23907624   
       700   7              5.2311984e-08  5.8859695e-06 -336082.09      2.1992932e-07  4.9770056      27.83345       3417.964       0.0069344554  -0.010416403   -0.056023154   -1.8642563e-10 -7.1837672e-11  0.23907541   
       710   7.1            5.1674943e-08  6.0073855e-06 -336082.09      2.1725108e-07  4.9770056      27.83345       3417.964       0.0069339077  -0.010422209   -0.056024259    5.5934443e-10 -2.1631078e-10  0.2390737    
       720   7.2            5.1074341e-08  6.134541e-06  -336082.09      2.1472604e-07  4.9770056      27.83345       3417.964       0.0069334748  -0.0104292     -0.056025393   -5.5574347e-10 -3.0383574e-10  0.23907157   
       730   7.3            5.0507376e-08  6.265018e-06  -336082.09      2.1234241e-07  4.9770056      27.83345       3417.964       0.0069329965  -0.010432764   -0.056026191    7.4718937e-11  2.0248389e-10  0.23907057   
       740   3.7            6.0720121e-13  6.1175576e-06 -336082.09      2.552787e-12   4.9770056      27.83345       3417.964       0.0069347937  -0.010421198   -0.056023217    3.3715771e-11 -3.1923776e-11  0.23907419   
       750   3.75           2.4213532e-12  5.9257938e-06 -336082.09      1.017982e-11   4.9770056      27.83345       3417.964       0.0069346001  -0.010422976   -0.05602358    -1.0943164e-11  4.9123741e-12  0.23907367   
       760   7.6            8.2257903e-12  5.9328723e-06 -336082.09      3.4582754e-11  4.9770056      27.83345       3417.964       0.0069346962  -0.01042249    -0.056023442   -1.1421016e-11 -9.9931261e-12  0.2390738    
       770   7.7            2.1580052e-11  5.8905917e-06 -336082.09      9.0726556e-11  4.9770056      27.83345       3417.964       0.0069346812  -0.010422538   -0.056023459    2.7290527e-11 -8.7594057e-12  0.23907379   
       780   7.8            4.2253085e-11  5.8628959e-06 -336082.09      1.7763984e-10  4.9770056      27.83345       3417.964       0.0069346837  -0.010422506   -0.056023455   -2.4143431e-11  1.2712983e-11  0.2390738    
       790   7.9            7.0705743e-11  5.8309206e-06 -336082.09      2.9726011e-10  4.9770056      27.83345       3417.964       0.0069346821  -0.010422508   -0.056023457    6.2069444e-11  7.9771859e-11  0.2390738    
       800   8              1.0728394e-10  5.7937927e-06 -336082.09      4.5104166e-10  4.9770056      27.83345       3417.964       0.0069346809  -0.010422505   -0.056023458   -1.1999595e-10 -7.2452868e-11  0.2390738    
       810   8.1            1.5220056e-10  5.7507497e-06 -336082.09      6.398795e-10   4.9770056      27.83345       3417.964       0.0069346797  -0.010422506   -0.056023459    3.4030981e-11 -2.7439657e-11  0.2390738    
       820   8.2            2.0556282e-10  5.7016548e-06 -336082.09      8.6422436e-10  4.9770056      27.83345       3417.964       0.006934678   -0.010422505   -0.056023461    9.2338541e-12 -5.7816381e-11  0.23907379   
       830   8.3            2.6737969e-10  5.6465428e-06 -336082.09      1.124114e-09   4.9770056      27.83345       3417.964       0.0069346769  -0.010422504   -0.056023463    6.8443542e-11 -1.5680882e-11  0.23907379   
       840   8.4            3.3757002e-10  5.5855943e-06 -336082.09      1.4192072e-09  4.9770056      27.83345       3417.964       0.0069346749  -0.010422503   -0.056023465   -4.5006483e-11 -5.5822282e-11  0.23907379   
       850   8.5            4.1597061e-10  5.519073e-06  -336082.09      1.7488179e-09  4.9770056      27.83345       3417.964       0.0069346727  -0.010422502   -0.056023466    2.0317509e-11 -1.5014424e-11  0.23907379   
       860   8.6            5.0234408e-10  5.4472887e-06 -336082.09      2.1119481e-09  4.9770056      27.83345       3417.964       0.0069346704  -0.010422501   -0.056023468    1.2955585e-10 -2.8144433e-11  0.23907379   
       870   8.7            5.9638628e-10  5.3705858e-06 -336082.09      2.507319e-09   4.9770056      27.83345       3417.964       0.0069346686  -0.0104225     -0.056023471    2.0490398e-10  1.7792185e-11  0.23907379   
       880   8.8            6.977354e-10   5.2893281e-06 -336082.09      2.9334095e-09  4.9770056      27.83345       3417.964       0.0069346661  -0.010422498   -0.056023474   -2.2490491e-11 -5.2382551e-11  0.23907379   
       890   8.9            8.0597977e-10  5.2038889e-06 -336082.09      3.3884891e-09  4.9770056      27.83345       3417.964       0.0069346635  -0.010422496   -0.056023477   -2.1696578e-11  5.241937e-11   0.23907378   
       900   9              9.2066533e-10  5.1146443e-06 -336082.09      3.8706485e-09  4.9770056      27.83345       3417.964       0.0069346611  -0.010422496   -0.05602348     6.1015926e-11 -1.7353637e-13  0.23907378   
       910   9.1            1.0413028e-09  5.0219694e-06 -336082.09      4.3778311e-09  4.9770056      27.83345       3417.964       0.0069346587  -0.010422493   -0.056023483    1.5876173e-10  3.5781288e-11  0.23907378   
       920   9.2            1.167375e-09   4.9262347e-06 -336082.09      4.9078618e-09  4.9770056      27.83345       3417.964       0.0069346558  -0.010422492   -0.056023486   -1.3794066e-11 -4.0381059e-11  0.23907378   
       930   9.3            1.2983429e-09  4.8278021e-06 -336082.09      5.4584753e-09  4.9770056      27.83345       3417.964       0.0069346523  -0.010422489   -0.05602349    -8.7818528e-11 -2.0273191e-11  0.23907377   
       940   9.4            1.4336523e-09  4.7270215e-06 -336082.09      6.0273411e-09  4.9770056      27.83345       3417.964       0.0069346491  -0.010422488   -0.056023493   -5.4632762e-11  1.0998631e-10  0.23907377   
       950   9.5            1.5727381e-09  4.6242351e-06 -336082.09      6.612084e-09   4.9770056      27.83345       3417.964       0.0069346462  -0.010422486   -0.056023497   -1.8376267e-10 -1.984943e-11   0.23907377   
       960   9.6            1.7150304e-09  4.5197717e-06 -336082.09      7.2103071e-09  4.9770056      27.83345       3417.964       0.0069346431  -0.010422484   -0.056023501   -2.4594567e-11 -5.1853607e-11  0.23907377   
       970   9.7            1.8599581e-09  4.4139486e-06 -336082.09      7.8196102e-09  4.9770056      27.83345       3417.964       0.0069346399  -0.010422482   -0.056023505    2.8243339e-10 -1.1948725e-10  0.23907376   
       980   9.8            2.006953e-09   4.3070746e-06 -336082.09      8.437604e-09   4.9770056      27.83345       3417.964       0.0069346361  -0.01042248    -0.056023509    9.0733708e-12 -1.0640759e-10  0.23907376   
       990   9.9            2.1554536e-09  4.199445e-06  -336082.09      9.0619282e-09  4.9770056      27.83345       3417.964       0.0069346335  -0.010422477   -0.056023513   -2.4489578e-10  6.3237445e-11  0.23907376   
      1000   10             2.3049072e-09  4.0913494e-06 -336082.09      9.6902593e-09  4.9770056      27.83345       3417.964       0.0069346289  -0.010422476   -0.056023516    1.2855219e-10 -1.1886283e-10  0.23907375   
      1010   10.1           2.4547737e-09  3.9830703e-06 -336082.09      1.0320326e-08  4.9770056      27.83345       3417.964       0.0069346264  -0.010422473   -0.056023521    1.4242468e-10  1.2032725e-10  0.23907375   
      1020   10.2           2.6045264e-09  3.8748811e-06 -336082.09      1.0949914e-08  4.9770056      27.83345       3417.964       0.0069346226  -0.010422471   -0.056023524   -2.0651985e-10  2.150256e-10   0.23907375   
      1030   10.3           2.7536549e-09  3.7670525e-06 -336082.09      1.1576878e-08  4.9770056      27.83345       3417.964       0.0069346197  -0.010422469   -0.056023528    3.2490611e-10 -1.8207626e-10  0.23907375   
      1040   10.4           2.9016659e-09  3.6598558e-06 -336082.09      1.2199144e-08  4.9770056      27.83345       3417.964       0.0069346153  -0.010422467   -0.056023532   -1.2179079e-11  8.676326e-11   0.23907374   
      1050   10.5           3.0480849e-09  3.5535581e-06 -336082.09      1.2814717e-08  4.9770056      27.83345       3417.964       0.0069346119  -0.010422465   -0.056023536    1.749917e-10  -1.2503528e-10  0.23907374   
      1060   10.6           3.1924569e-09  3.448428e-06  -336082.09      1.3421683e-08  4.9770056      27.83345       3417.964       0.0069346084  -0.010422464   -0.056023539   -1.3934718e-10 -7.1322799e-11  0.23907374   
      1070   10.7           3.3343471e-09  3.3447392e-06 -336082.09      1.4018216e-08  4.9770056      27.83345       3417.964       0.0069346058  -0.010422461   -0.056023544    2.7420101e-10 -8.5247715e-11  0.23907373   
      1080   10.8           3.4733418e-09  3.2427665e-06 -336082.09      1.4602576e-08  4.9770056      27.83345       3417.964       0.0069346017  -0.01042246    -0.056023546    3.210843e-12   1.2796556e-10  0.23907373   
      1090   10.9           3.609049e-09   3.1427949e-06 -336082.09      1.5173114e-08  4.9770056      27.83345       3417.964       0.0069345986  -0.010422457   -0.056023551    2.6944473e-10  1.7958776e-10  0.23907373   
      1100   11             3.741099e-09   3.0451138e-06 -336082.09      1.5728277e-08  4.9770056      27.83345       3417.964       0.0069345952  -0.010422456   -0.056023554    3.6580392e-10 -1.9609782e-11  0.23907373   
      1110   11.1           3.8691446e-09  2.9500247e-06 -336082.09      1.6266605e-08  4.9770056      27.83345       3417.964       0.0069345924  -0.010422454   -0.056023558   -5.533149e-12   1.5556156e-10  0.23907372   
      1120   11.2           3.9928631e-09  2.8578335e-06 -336082.09      1.678674e-08   4.9770056      27.83345       3417.964       0.0069345884  -0.010422452   -0.056023561   -2.597441e-10  -3.2551196e-11  0.23907372   
      1130   11.3           4.1119562e-09  2.7688598e-06 -336082.09      1.7287429e-08  4.9770056      27.83345       3417.964       0.0069345862  -0.01042245    -0.056023565    1.7318613e-11  9.8283097e-11  0.23907372   
      1140   11.4           4.2261519e-09  2.6834329e-06 -336082.09      1.776753e-08   4.9770056      27.83345       3417.964       0.0069345838  -0.01042245    -0.056023569    2.670661e-10  -1.5380408e-10  0.23907372   
      1150   11.5           4.335207e-09   2.6018831e-06 -336082.09      1.8226018e-08  4.9770056      27.83345       3417.964       0.0069345801  -0.010422448   -0.056023572    1.8753101e-10 -1.6327872e-10  0.23907371   
      1160   11.6           4.4389089e-09  2.5245554e-06 -336082.09      1.8662e-08     4.9770056      27.83345       3417.964       0.0069345768  -0.010422447   -0.056023575   -3.0847652e-11  2.3411099e-10  0.23907371   
      1170   11.7           4.5370784e-09  2.4517951e-06 -336082.09      1.9074722e-08  4.9770056      27.83345       3417.964       0.0069345747  -0.010422446   -0.056023578   -2.582891e-10   3.39511e-10    0.23907371   
      1180   11.8           4.6295739e-09  2.3839357e-06 -336082.09      1.9463591e-08  4.9770056      27.83345       3417.964       0.0069345721  -0.010422445   -0.056023581   -4.1949343e-10  1.0421139e-10  0.23907371   
      1190   11.9           4.7162949e-09  2.321321e-06  -336082.09      1.9828182e-08  4.9770056      27.83345       3417.964       0.0069345683  -0.010422445   -0.056023583   -3.0163893e-10  6.1837655e-11  0.2390737    
      1200   12             4.7971858e-09  2.2642688e-06 -336082.09      2.0168263e-08  4.9770056      27.83345       3417.964       0.0069345665  -0.010422443   -0.056023586   -8.3173242e-11  1.0335629e-10  0.2390737    
      1210   12.1           4.872241e-09   2.2130803e-06 -336082.09      2.0483808e-08  4.9770056      27.83345       3417.964       0.0069345639  -0.010422443   -0.056023589   -3.8908635e-11  2.1648929e-10  0.2390737    
      1220   12.2           4.9415068e-09  2.1680201e-06 -336082.09      2.0775015e-08  4.9770056      27.83345       3417.964       0.006934562   -0.010422442   -0.056023592   -3.6578323e-10  2.5786964e-10  0.2390737    
      1230   12.3           5.0050857e-09  2.129324e-06  -336082.09      2.1042312e-08  4.9770056      27.83345       3417.964       0.0069345591  -0.010422442   -0.056023593   -5.2761623e-10  2.4281086e-10  0.2390737    
      1240   12.4           5.063136e-09   2.0971641e-06 -336082.09      2.1286367e-08  4.9770056      27.83345       3417.964       0.0069345565  -0.010422441   -0.056023596   -3.749088e-10   2.7457241e-10  0.23907369   
      1250   12.5           5.1158716e-09  2.0716767e-06 -336082.09      2.1508077e-08  4.9770056      27.83345       3417.964       0.0069345539  -0.010422442   -0.056023598   -4.708741e-10   3.0271386e-10  0.23907369   
      1260   12.6           5.1635589e-09  2.0529207e-06 -336082.09      2.1708563e-08  4.9770056      27.83345       3417.964       0.0069345523  -0.010422441   -0.056023601   -1.3360127e-11  4.9391303e-10  0.23907369   
      1270   12.7           5.2065103e-09  2.0408817e-06 -336082.09      2.1889139e-08  4.9770056      27.83345       3417.964       0.0069345512  -0.01042244    -0.056023604    4.0977728e-10  2.2171794e-10  0.23907369   
      1280   12.8           5.2450771e-09  2.0354958e-06 -336082.09      2.2051281e-08  4.9770056      27.83345       3417.964       0.0069345502  -0.01042244    -0.056023607    1.5118303e-10 -5.1117032e-10  0.23907369   
      1290   12.9           5.2796391e-09  2.0366161e-06 -336082.09      2.2196586e-08  4.9770056      27.83345       3417.964       0.0069345487  -0.01042244    -0.056023609    2.7677434e-10 -2.4052452e-10  0.23907368   
      1300   13             5.3105941e-09  2.0440161e-06 -336082.09      2.2326726e-08  4.9770056      27.83345       3417.964       0.0069345454  -0.010422441   -0.056023609    9.6000029e-11  6.0489872e-10  0.23907368   
      1310   13.1           5.338346e-09   2.0574194e-06 -336082.09      2.2443401e-08  4.9770056      27.83345       3417.964       0.0069345437  -0.010422441   -0.056023612   -3.0486411e-10  4.382997e-10   0.23907368   
      1320   13.2           5.3632946e-09  2.0765031e-06 -336082.09      2.2548289e-08  4.9770056      27.83345       3417.964       0.0069345434  -0.01042244    -0.056023615    1.8714588e-10 -1.5065437e-10  0.23907368   
      1330   13.3           5.3858256e-09  2.1008806e-06 -336082.09      2.2643014e-08  4.9770056      27.83345       3417.964       0.0069345421  -0.010422442   -0.056023616    2.2764154e-10 -1.181468e-10   0.23907368   
      1340   13.4           5.4063022e-09  2.1301473e-06 -336082.09      2.2729101e-08  4.9770056      27.83345       3417.964       0.0069345387  -0.010422442   -0.056023616   -1.9967888e-10  4.1333046e-10  0.23907368   
      1350   13.5           5.4250598e-09  2.1638571e-06 -336082.09      2.2807962e-08  4.9770056      27.83345       3417.964       0.0069345387  -0.010422441   -0.05602362    -3.6209151e-11 -9.541518e-11   0.23907368   
      1360   13.6           5.4424013e-09  2.2015573e-06 -336082.09      2.2880869e-08  4.9770056      27.83345       3417.964       0.0069345376  -0.010422444   -0.05602362     2.4352798e-10 -4.7380069e-10  0.23907368   
      1370   13.7           5.4585961e-09  2.2427811e-06 -336082.09      2.2948955e-08  4.9770056      27.83345       3417.964       0.0069345349  -0.010422442   -0.056023622   -5.4809649e-10  1.5360349e-10  0.23907367   
      1380   13.8           5.473879e-09   2.2870809e-06 -336082.09      2.3013207e-08  4.9770056      27.83345       3417.964       0.0069345363  -0.010422444   -0.056023624    5.8507594e-10  1.0622123e-10  0.23907367   
      1390   13.9           5.488452e-09   2.3340236e-06 -336082.09      2.3074474e-08  4.9770056      27.83345       3417.964       0.0069345329  -0.010422443   -0.056023625   -4.2782065e-10 -3.0559079e-10  0.23907367   
      1400   14             5.502486e-09   2.3831855e-06 -336082.09      2.3133476e-08  4.9770056      27.83345       3417.964       0.0069345313  -0.010422443   -0.056023625    2.3750097e-10  6.0400832e-10  0.23907367   
      1410   14.1           5.5161246e-09  2.4341726e-06 -336082.09      2.3190815e-08  4.9770056      27.83345       3417.964       0.006934533   -0.010422444   -0.056023628   -6.3410329e-11 -5.4448184e-10  0.23907367   
      1420   14.2           5.5294866e-09  2.4866063e-06 -336082.09      2.3246991e-08  4.9770056      27.83345       3417.964       0.0069345279  -0.010422443   -0.056023628   -8.4221305e-11  2.1349586e-10  0.23907367   
      1430   14.3           5.5426698e-09  2.5401657e-06 -336082.09      2.3302416e-08  4.9770056      27.83345       3417.964       0.0069345308  -0.010422445   -0.056023631   -3.9055026e-11 -5.0136733e-10  0.23907367   
      1440   14.4           5.5557547e-09  2.5945223e-06 -336082.09      2.3357427e-08  4.9770056      27.83345       3417.964       0.0069345284  -0.010422443   -0.05602363     1.4524057e-10  5.9445028e-10  0.23907367   
      1450   14.5           5.5688071e-09  2.6493989e-06 -336082.09      2.3412302e-08  4.9770056      27.83345       3417.964       0.0069345263  -0.010422444   -0.056023631   -3.6675318e-11  6.8253531e-12  0.23907366   
      1460   14.6           5.581882e-09   2.7045246e-06 -336082.09      2.3467271e-08  4.9770056      27.83345       3417.964       0.0069345271  -0.010422445   -0.056023634    5.3963338e-11 -5.772923e-11   0.23907366   
      1470   14.7           5.595025e-09   2.7596828e-06 -336082.09      2.3522527e-08  4.9770056      27.83345       3417.964       0.0069345247  -0.010422443   -0.056023633   -1.0829457e-11  8.152554e-11   0.23907366   
      1480   14.8           5.6082759e-09  2.8146527e-06 -336082.09      2.3578236e-08  4.9770056      27.83345       3417.964       0.0069345257  -0.010422445   -0.056023635   -2.485771e-10  -7.187402e-10   0.23907366   
      1490   14.9           5.6216695e-09  2.8692438e-06 -336082.09      2.3634545e-08  4.9770056      27.83345       3417.964       0.0069345232  -0.010422445   -0.056023634    3.7779005e-10  9.9494455e-10  0.23907366   
      1500   15             5.6352378e-09  2.9232719e-06 -336082.09      2.3691589e-08  4.9770056      27.83345       3417.964       0.0069345239  -0.010422443   -0.056023638   -1.8609567e-10 -4.9935293e-10  0.23907366   
      1510   15.1           5.6490112e-09  2.9765939e-06 -336082.09      2.3749495e-08  4.9770056      27.83345       3417.964       0.0069345208  -0.010422444   -0.056023635    4.4808079e-11  3.2624942e-10  0.23907366   
      1520   15.2           5.6630193e-09  3.0290636e-06 -336082.09      2.3808388e-08  4.9770056      27.83345       3417.964       0.0069345238  -0.010422444   -0.05602364    -1.4715229e-10 -7.4257334e-10  0.23907366   
      1530   15.3           5.6772919e-09  3.0805461e-06 -336082.09      2.3868392e-08  4.9770056      27.83345       3417.964       0.0069345188  -0.010422444   -0.056023637   -6.9486153e-11  2.8524396e-10  0.23907366   
      1540   15.4           5.6918593e-09  3.1309311e-06 -336082.09      2.3929636e-08  4.9770056      27.83345       3417.964       0.0069345227  -0.010422444   -0.056023641    1.7355252e-10 -1.5992842e-10  0.23907366   
      1550   15.5           5.7067529e-09  3.1801025e-06 -336082.09      2.3992252e-08  4.9770056      27.83345       3417.964       0.0069345171  -0.010422445   -0.056023638   -7.599179e-11   7.2015051e-10  0.23907366   
      1560   15.6           5.7220053e-09  3.2279677e-06 -336082.09      2.4056376e-08  4.9770056      27.83345       3417.964       0.0069345203  -0.010422444   -0.056023643    1.4176051e-10 -8.2509969e-10  0.23907366   
      1570   15.7           5.7376503e-09  3.2744374e-06 -336082.09      2.412215e-08   4.9770056      27.83345       3417.964       0.0069345178  -0.010422444   -0.056023641   -2.5353882e-10  7.5508273e-10  0.23907366   
      1580   15.8           5.7537229e-09  3.3194356e-06 -336082.09      2.4189723e-08  4.9770056      27.83345       3417.964       0.0069345182  -0.010422445   -0.056023643    4.348968e-10  -6.2174568e-10  0.23907366   
      1590   15.9           5.7702596e-09  3.3628668e-06 -336082.09      2.4259246e-08  4.9770056      27.83345       3417.964       0.0069345156  -0.010422444   -0.056023642   -5.6547634e-10  6.909136e-10   0.23907366   
      1600   16             5.7872974e-09  3.4046895e-06 -336082.09      2.4330876e-08  4.9770056      27.83345       3417.964       0.0069345174  -0.010422444   -0.056023645    7.4858646e-10 -4.2506073e-10  0.23907365   
      1610   16.1           5.8048744e-09  3.4448303e-06 -336082.09      2.4404773e-08  4.9770056      27.83345       3417.964       0.0069345146  -0.010422443   -0.056023645   -8.2135642e-10  2.1966903e-10  0.23907365   
      1620   16.2           5.8230293e-09  3.4832309e-06 -336082.09      2.4481099e-08  4.9770056      27.83345       3417.964       0.0069345162  -0.010422445   -0.056023644    7.6551985e-10 -1.6902063e-10  0.23907366   
      1630   16.3           5.8418006e-09  3.5198405e-06 -336082.09      2.4560018e-08  4.9770056      27.83345       3417.964       0.0069345122  -0.010422441   -0.056023647   -5.7861158e-10  3.4088665e-10  0.23907365   
      1640   16.4           5.8612272e-09  3.5546248e-06 -336082.09      2.4641691e-08  4.9770056      27.83345       3417.964       0.0069345149  -0.010422444   -0.056023647    2.1329636e-10 -7.9412638e-10  0.23907365   
      1650   16.5           5.8813473e-09  3.5875279e-06 -336082.09      2.4726279e-08  4.9770056      27.83345       3417.964       0.0069345117  -0.010422441   -0.056023647   -1.0649776e-11  7.0522024e-10  0.23907365   
      1660   16.6           5.9021986e-09  3.6185249e-06 -336082.09      2.4813942e-08  4.9770056      27.83345       3417.964       0.0069345129  -0.010422443   -0.056023649   -2.0839112e-10 -7.2029026e-10  0.23907365   
      1670   16.7           5.9238177e-09  3.6475903e-06 -336082.09      2.4904833e-08  4.9770056      27.83345       3417.964       0.0069345102  -0.01042244    -0.056023649    4.3253039e-10  9.8309185e-10  0.23907365   
      1680   16.8           5.94624e-09    3.6746774e-06 -336082.09      2.49991e-08    4.9770056      27.83345       3417.964       0.0069345111  -0.010422441   -0.056023651   -4.9263691e-10 -8.9881183e-10  0.23907365   
      1690   16.9           5.9694992e-09  3.6997801e-06 -336082.09      2.5096886e-08  4.9770056      27.83345       3417.964       0.0069345089  -0.010422441   -0.056023649    3.6463038e-10  4.382734e-10   0.23907365   
      1700   17             5.9936271e-09  3.7228852e-06 -336082.09      2.5198324e-08  4.9770056      27.83345       3417.964       0.0069345102  -0.010422441   -0.056023654   -1.5482444e-10 -5.0596566e-11  0.23907365   
      1710   17.1           6.0186535e-09  3.743975e-06  -336082.09      2.530354e-08   4.9770056      27.83345       3417.964       0.0069345066  -0.010422441   -0.056023651    2.170205e-10   4.4957685e-10  0.23907365   
      1720   17.2           6.0446057e-09  3.7630201e-06 -336082.09      2.5412648e-08  4.9770056      27.83345       3417.964       0.0069345092  -0.01042244    -0.056023655   -2.2934917e-10 -7.0094876e-10  0.23907365   
      1730   17.3           6.0715086e-09  3.7800492e-06 -336082.09      2.5525753e-08  4.9770056      27.83345       3417.964       0.0069345038  -0.010422442   -0.056023652   -5.8716517e-11  1.879564e-10   0.23907365   
      1740   17.4           6.099384e-09   3.7950385e-06 -336082.09      2.5642946e-08  4.9770056      27.83345       3417.964       0.0069345076  -0.010422439   -0.056023658    8.1349721e-11 -4.0997193e-10  0.23907364   
      1750   17.5           6.1282511e-09  3.807995e-06  -336082.09      2.5764309e-08  4.9770056      27.83345       3417.964       0.006934504   -0.01042244    -0.056023655    7.8490831e-12  9.8819734e-10  0.23907364   
      1760   17.6           6.1581255e-09  3.8189268e-06 -336082.09      2.5889907e-08  4.9770056      27.83345       3417.964       0.0069345032  -0.010422439   -0.056023658    9.9014189e-11 -8.8559466e-10  0.23907364   
      1770   17.7           6.18902e-09    3.8278455e-06 -336082.09      2.6019793e-08  4.9770056      27.83345       3417.964       0.0069345026  -0.010422438   -0.056023658   -4.4838745e-10  1.869383e-11   0.23907364   
      1780   17.8           6.2209437e-09  3.8347525e-06 -336082.09      2.6154006e-08  4.9770056      27.83345       3417.964       0.0069345027  -0.010422439   -0.056023661    5.0669747e-10  9.1136932e-11  0.23907364   
      1790   17.9           6.2539022e-09  3.8396841e-06 -336082.09      2.6292569e-08  4.9770056      27.83345       3417.964       0.0069345     -0.010422436   -0.056023661   -2.9472574e-10  4.3668727e-10  0.23907364   
      1800   18             6.2878977e-09  3.8426514e-06 -336082.09      2.6435493e-08  4.9770056      27.83345       3417.964       0.0069344989  -0.010422438   -0.056023661    2.7080208e-10 -1.4612519e-10  0.23907364   
      1810   18.1           6.3229288e-09  3.8436591e-06 -336082.09      2.658277e-08   4.9770056      27.83345       3417.964       0.0069344988  -0.010422435   -0.056023665   -2.4032128e-10 -3.0446975e-10  0.23907364   
      1820   18.2           6.3589903e-09  3.842772e-06  -336082.09      2.6734379e-08  4.9770056      27.83345       3417.964       0.0069344984  -0.010422437   -0.056023664    1.8734402e-11 -1.2719018e-11  0.23907364   
      1830   18.3           6.3960734e-09  3.8399948e-06 -336082.09      2.6890284e-08  4.9770056      27.83345       3417.964       0.0069344952  -0.010422435   -0.056023666    2.8638565e-10  7.3674128e-10  0.23907364   
      1840   18.4           6.4341658e-09  3.8353602e-06 -336082.09      2.7050431e-08  4.9770056      27.83345       3417.964       0.0069344944  -0.010422435   -0.056023666   -3.7586958e-10 -7.1124239e-10  0.23907364   
      1850   18.5           6.4732513e-09  3.8289074e-06 -336082.09      2.7214754e-08  4.9770056      27.83345       3417.964       0.0069344954  -0.010422436   -0.056023669    1.6532206e-10 -5.3544149e-11  0.23907363   
      1860   18.6           6.5133105e-09  3.8206913e-06 -336082.09      2.738317e-08   4.9770056      27.83345       3417.964       0.0069344918  -0.010422434   -0.05602367    -7.7851012e-11  4.4750986e-11  0.23907363   
      1870   18.7           6.5543201e-09  3.8107253e-06 -336082.09      2.7555582e-08  4.9770056      27.83345       3417.964       0.0069344919  -0.010422437   -0.05602367    -4.7917942e-12  2.0099174e-10  0.23907364   
      1880   18.8           6.5962536e-09  3.7990756e-06 -336082.09      2.7731879e-08  4.9770056      27.83345       3417.964       0.0069344891  -0.010422432   -0.056023672    2.3261647e-10  2.287109e-10   0.23907363   
      1890   18.9           6.6390812e-09  3.7857856e-06 -336082.09      2.7911934e-08  4.9770056      27.83345       3417.964       0.0069344907  -0.010422433   -0.056023675   -4.8505155e-10 -9.4818819e-10  0.23907363   
      1900   19             6.6827695e-09  3.7708934e-06 -336082.09      2.8095608e-08  4.9770056      27.83345       3417.964       0.0069344859  -0.010422432   -0.056023675    3.7185207e-10  6.909955e-10   0.23907363   
      1910   19.1           6.7272824e-09  3.754471e-06  -336082.09      2.8282748e-08  4.9770056      27.83345       3417.964       0.0069344873  -0.01042243    -0.056023677   -6.9074754e-11  3.9900207e-11  0.23907363   
      1920   19.2           6.7725806e-09  3.7365658e-06 -336082.09      2.847319e-08   4.9770056      27.83345       3417.964       0.0069344838  -0.01042243    -0.056023677   -2.8551291e-11  2.8325511e-11  0.23907363   
      1930   19.3           6.8186219e-09  3.7172295e-06 -336082.09      2.8666756e-08  4.9770056      27.83345       3417.964       0.0069344849  -0.010422429   -0.056023682    1.0478951e-10 -3.5390396e-10  0.23907363   
      1940   19.4           6.8653614e-09  3.6965199e-06 -336082.09      2.8863258e-08  4.9770056      27.83345       3417.964       0.0069344795  -0.01042243    -0.056023679   -3.5516286e-10  5.4557733e-11  0.23907363   
      1950   19.5           6.9127517e-09  3.6745244e-06 -336082.09      2.9062495e-08  4.9770056      27.83345       3417.964       0.0069344843  -0.01042243    -0.056023687    5.4492966e-10  2.245386e-10   0.23907362   
      1960   19.6           6.960743e-09   3.6512763e-06 -336082.09      2.926426e-08   4.9770056      27.83345       3417.964       0.0069344759  -0.010422428   -0.056023682   -4.0975929e-10  3.0710326e-10  0.23907362   
      1970   19.7           7.0092832e-09  3.6268544e-06 -336082.09      2.9468332e-08  4.9770056      27.83345       3417.964       0.0069344802  -0.010422431   -0.056023688    2.1602494e-10 -9.3348633e-10  0.23907362   
      1980   19.8           7.0583182e-09  3.6013354e-06 -336082.09      2.9674484e-08  4.9770056      27.83345       3417.964       0.0069344735  -0.010422428   -0.056023686   -2.6278431e-10  7.7899249e-10  0.23907362   
      1990   19.9           7.1077921e-09  3.5747803e-06 -336082.09      2.9882482e-08  4.9770056      27.83345       3417.964       0.0069344783  -0.010422428   -0.056023692    3.9666459e-10 -3.613041e-10   0.23907362   
      2000   20             7.1576473e-09  3.5472573e-06 -336082.09      3.0092082e-08  4.9770056      27.83345       3417.964       0.0069344706  -0.010422425   -0.056023691   -2.5170889e-10  5.9039143e-10  0.23907361   
Loop time of 1260.23 on 1 procs for 2000 steps with 32526 atoms

96.7% CPU use with 1 MPI tasks x 1 OpenMP threads

Minimization stats:
  Stopping criterion = max iterations
  Energy initial, next-to-last, final = 
     -335658.641846792  -336082.086079683  -336082.086079686
  Force two-norm initial, final = 126.17124 3.5472573e-06
  Force max component initial, final = 1.1695673 6.4434016e-08
  Final line search alpha, max atom move = 0 0
  Iterations, force evaluations = 2000 2005

MPI task timing breakdown:
Section |  min time  |  avg time  |  max time  |%varavg| %total
---------------------------------------------------------------
Pair    | 1255.2     | 1255.2     | 1255.2     |   0.0 | 99.60
Neigh   | 0          | 0          | 0          |   0.0 |  0.00
Comm    | 3.3504     | 3.3504     | 3.3504     |   0.0 |  0.27
Output  | 0.059073   | 0.059073   | 0.059073   |   0.0 |  0.00
Modify  | 0          | 0          | 0          |   0.0 |  0.00
Other   |            | 1.575      |            |       |  0.12

Nlocal:          32526 ave       32526 max       32526 min
Histogram: 1 0 0 0 0 0 0 0 0 0
Nghost:         150324 ave      150324 max      150324 min
Histogram: 1 0 0 0 0 0 0 0 0 0
Neighs:              0 ave           0 max           0 min
Histogram: 1 0 0 0 0 0 0 0 0 0
FullNghs:  3.66293e+06 ave 3.66293e+06 max 3.66293e+06 min
Histogram: 1 0 0 0 0 0 0 0 0 0

Total # of neighbors = 3662928
Ave neighs/atom = 112.61538
Neighbor list builds = 0
Dangerous builds = 0

#write_data      fire_${name}.data

fix             3 all box/relax aniso 0.0 vmax 0.001
min_style       cg
minimize        0.0 1.0e-8 1000 2000
Switching to 'neigh_modify every 1 delay 0 check yes' setting during minimization
WARNING: Energy due to 3 extra global DOFs will be included in minimizer energies
 (src/min.cpp:219)
Per MPI rank memory allocation (min/avg/max) = 64.97 | 64.97 | 64.97 Mbytes
   Step          Time           Temp          Fnorm          PotEng         KinEng           Lx             Ly             Lz            Pxx            Pyy            Pzz            Pxy            Pxz            Pyz      
      2000   2              7.1576473e-09  3.5472575e-06 -336082.09      3.0092082e-08  4.9770056      27.83345       3417.964       0.0069344708  -0.010422425   -0.056023691   -2.457585e-10   6.0768473e-10  0.23907361   
      2010   2.01           7.1576473e-09  1.4367248e-05 -336082.09      3.0092082e-08  4.9770057      27.83345       3417.9639     -0.00091065542 -0.002606894    0.0019666586  -1.4685927e-10  6.0726698e-10  0.23478497   
      2020   2.02           7.1576473e-09  3.7721862e-06 -336082.09      3.0092082e-08  4.9770057      27.83345       3417.9639     -0.0031450696  -0.0013707282  -0.0024105508   2.1553133e-11  1.2833217e-12  0.23460326   
      2030   2.03           7.1576473e-09  7.7107159e-06 -336082.09      3.0092082e-08  4.9770057      27.83345       3417.9639     -1.8215556e-05  3.5009427e-05 -2.458018e-05  -2.3167802e-10 -4.3711405e-10  0.23453089   
      2040   2.04           7.1576473e-09  1.0703011e-05 -336082.09      3.0092082e-08  4.9770057      27.83345       3417.9639     -0.0003456383   0.00025994481  0.00037224327 -2.4818088e-10  6.7362406e-11  0.23460047   
      2050   2.05           7.1576473e-09  2.4591338e-05 -336082.09      3.0092082e-08  4.9770057      27.83345       3417.9639     -0.00017849318 -1.5522053e-05  3.0327322e-05  2.1094034e-09  1.8678202e-10  0.23443978   
      2060   2.06           7.1576473e-09  3.7560589e-05 -336082.09      3.0092082e-08  4.9770057      27.83345       3417.9639      0.0005491532   0.0032747977  -0.003242461    1.8118559e-09 -3.1255093e-09  0.23472829   
      2070   2.07           7.1576473e-09  1.1662891e-05 -336082.09      3.0092082e-08  4.9770057      27.83345       3417.9639     -0.00078374884  0.00094532067 -2.9096486e-05 -2.0098497e-10 -2.6913856e-10  0.23441428   
      2080   2.08           7.1576473e-09  4.1750128e-06 -336082.09      3.0092082e-08  4.9770057      27.83345       3417.9639     -0.0017803816  -0.0015015082  -0.00093967535 -9.6799739e-11 -3.8145032e-11  0.23446754   
      2090   2.09           7.1576473e-09  5.2103636e-06 -336082.09      3.0092082e-08  4.9770057      27.83345       3417.9639     -3.2174838e-05  1.8177189e-05  3.1010106e-05  4.305111e-10  -3.3857472e-10  0.23454096   
      2100   2.1            7.1576473e-09  1.0384041e-05 -336082.09      3.0092082e-08  4.9770057      27.83345       3417.9639      7.4348311e-05 -0.00026573106  0.00024534399  1.5644604e-09 -1.1064313e-09  0.23456267   
      2110   2.11           7.1576473e-09  2.0189907e-05 -336082.09      3.0092082e-08  4.9770057      27.83345       3417.9639      0.0020554097   0.00021339618  0.0001374615   3.4730209e-09 -1.8783032e-09  0.23471419   
      2120   2.12           7.1576473e-09  3.1356865e-05 -336082.09      3.0092082e-08  4.9770057      27.83345       3417.9639     -3.5331508e-05  5.2317117e-05  7.8388688e-05  5.4613145e-09 -2.7450447e-09  0.2346984    
      2130   2.13           7.1576473e-09  3.8543511e-05 -336082.09      3.0092082e-08  4.9770057      27.83345       3417.9639      0.00017147788  0.00035269489  0.00010651807  6.6632431e-09 -3.2164809e-09  0.2347301    
      2140   2.14           7.1576473e-09  5.1781872e-05 -336082.09      3.0092082e-08  4.9770057      27.83345       3417.9639      0.001989664    0.00090569144  8.7408253e-05  9.0519216e-09 -3.726537e-09   0.23481359   
      2150   2.15           7.1576473e-09  6.0548186e-05 -336082.09      3.0092082e-08  4.9770057      27.83345       3417.9639      9.1315262e-05  0.00015282873  7.382427e-05   1.0842653e-08 -3.8422253e-09  0.23471872   
      2160   2.16           7.1576473e-09  6.8277468e-05 -336082.09      3.0092082e-08  4.9770057      27.83345       3417.9639      0.0008414875   0.00047696328  0.0012048627   1.242748e-08  -3.9601497e-09  0.23462234   
      2170   2.17           7.1576473e-09  7.7815051e-05 -336082.09      3.0092082e-08  4.9770057      27.83345       3417.9639      0.0015485492   0.0017677183   0.0025363331   1.4766714e-08 -3.3763883e-09  0.23442337   
      2180   2.18           7.1576473e-09  8.1816036e-05 -336082.09      3.0092082e-08  4.9770057      27.83345       3417.9639      0.0002695807   0.00034857245  0.00036135876  1.5799816e-08 -2.904862e-09   0.23440232   
      2190   2.19           7.1576473e-09  8.4476436e-05 -336082.09      3.0092082e-08  4.9770057      27.83345       3417.9639      0.0020637249   0.0012786509   0.00096833426  1.6490871e-08 -2.2050395e-09  0.23430799   
      2200   2.2            7.1576473e-09  8.5787448e-05 -336082.09      3.0092082e-08  4.9770057      27.83345       3417.9639      0.00013584115  0.0001531673   0.00021419168  1.6813372e-08 -1.4616922e-09  0.23416054   
      2210   2.21           7.1576473e-09  8.6868532e-05 -336082.09      3.0092082e-08  4.9770057      27.83345       3417.9639      0.00054536249 -7.7399958e-05 -0.00016290183  1.6740272e-08 -7.1001843e-10  0.23406759   
      2220   2.22           7.1576473e-09  8.7467645e-05 -336082.09      3.0092082e-08  4.9770057      27.83345       3417.9639      4.5896215e-05  0.00059375945 -0.00024884931  1.6738253e-08  5.1989586e-10  0.23396152   
      2230   2.23           7.1576473e-09  8.8638372e-05 -336082.09      3.0092082e-08  4.9770057      27.83345       3417.9639      8.5612836e-05  8.0369248e-05  2.526311e-05   1.6070543e-08  1.5586928e-09  0.23381561   
      2240   2.24           7.1576473e-09  9.0307466e-05 -336082.09      3.0092082e-08  4.9770057      27.83345       3417.9639      0.0013783513  -0.00021861469 -0.00012739796  1.5240667e-08  2.5151437e-09  0.23377442   
      2250   2.25           7.1576473e-09  9.3365736e-05 -336082.09      3.0092082e-08  4.9770057      27.83345       3417.9639      0.00012439957  0.00016986537  0.00024263091  1.3988012e-08  4.1937805e-09  0.23359236   
      2260   2.26           7.1576473e-09  9.7418232e-05 -336082.09      3.0092082e-08  4.9770057      27.83345       3417.9639     -0.00019898502  0.0008511873   0.00069522359  1.2321677e-08  5.2123569e-09  0.23347308   
      2270   2.27           7.1576473e-09  0.00010529659 -336082.09      3.0092082e-08  4.9770057      27.83345       3417.9639      0.0013578132   0.0010181888   0.00068834086  9.730472e-09   6.9875525e-09  0.23345577   
      2280   2.28           7.1576473e-09  0.00011242692 -336082.09      3.0092082e-08  4.9770057      27.83345       3417.9639      0.00038343421  0.00030551562  0.00033204409  7.629852e-09   8.4268572e-09  0.23340846   
      2290   2.29           7.1576473e-09  0.00012065389 -336082.09      3.0092082e-08  4.9770057      27.83345       3417.9639      0.00075598909  0.0011439679   0.0016728693   5.1329077e-09  9.6051966e-09  0.23332586   
      2300   2.3            7.1576473e-09  0.00013417114 -336082.09      3.0092082e-08  4.9770057      27.83345       3417.964       0.0010528629  -0.00020441919  5.8378648e-05  1.1389877e-09  1.1422602e-08  0.23346844   
      2310   2.31           7.1576473e-09  0.0001461474  -336082.09      3.0092082e-08  4.9770057      27.83345       3417.964       0.00021386545  0.00019179063  1.6158483e-06 -2.3328142e-09  1.3234604e-08  0.23350273   
      2320   2.32           7.1576473e-09  0.00016186779 -336082.09      3.0092082e-08  4.9770057      27.83345       3417.964      -0.001139524    0.0018946633   0.0005838965  -7.1252677e-09  1.5364253e-08  0.2335433    
      2330   2.33           7.1576473e-09  0.00017783828 -336082.09      3.0092082e-08  4.9770057      27.83345       3417.964       0.00050005366  1.6569777e-05  0.00010644806 -1.2036226e-08  1.7459569e-08  0.23379391   
      2340   2.34           7.1576473e-09  0.00019489143 -336082.09      3.0092082e-08  4.9770057      27.83345       3417.964       0.0012186962   0.0024803885   0.0032093274  -1.7614241e-08  1.9695476e-08  0.23385091   
      2350   2.35           7.1576473e-09  0.00021174227 -336082.09      3.0092082e-08  4.9770057      27.83345       3417.964       0.0010509892   0.00025069309  0.00077011348 -2.3422578e-08  2.1958302e-08  0.2342802    
      2360   2.36           7.1576473e-09  0.0002272929  -336082.09      3.0092082e-08  4.9770057      27.83345       3417.964      -0.00024253855  0.0017204281   0.0010641134  -2.9049664e-08  2.4260724e-08  0.23453123   
      2370   2.37           7.1576473e-09  0.00025011876 -336082.09      3.0092082e-08  4.9770057      27.83345       3417.964       0.0015679287   0.00088482662 -0.0012129848  -3.8069456e-08  2.7677269e-08  0.23532239   
      2380   2.38           7.1576473e-09  0.00026740851 -336082.09      3.0092082e-08  4.9770057      27.83345       3417.964       0.00027890035  0.00021861941  0.00015641133 -4.5118726e-08  3.0138251e-08  0.23567935   
      2390   2.39           7.1576473e-09  0.00028422938 -336082.09      3.0092082e-08  4.9770057      27.83345       3417.964       1.2353989e-05  0.0014011716   0.003217742   -5.2672497e-08  3.2164669e-08  0.23604622   
      2400   2.4            7.1576473e-09  0.00030145103 -336082.09      3.0092082e-08  4.9770057      27.83345       3417.964       0.0060744918   0.0025297411   0.0037026889  -6.1646077e-08  3.432515e-08   0.23701597   
      2410   2.41           7.1576473e-09  0.00031643661 -336082.09      3.0092082e-08  4.9770057      27.83345       3417.964      -0.00020312962  0.00062812955  0.0015100375  -6.9588532e-08  3.5759987e-08  0.23766806   
      2420   2.42           7.1576473e-09  0.00032697464 -336082.09      3.0092082e-08  4.9770057      27.83345       3417.964       0.00029763134  0.00080464678 -0.00013659009 -7.618954e-08   3.6580364e-08  0.23848797   
      2430   2.43           7.1576473e-09  0.00033807788 -336082.09      3.0092082e-08  4.9770057      27.83345       3417.964      -0.00035377203  0.0045064532   0.00032898982 -8.3793495e-08  3.682962e-08   0.23933447   
      2440   2.44           7.1576473e-09  0.00034565916 -336082.09      3.0092082e-08  4.9770056      27.83345       3417.964       0.0017968885   0.0012662805   0.00090988635 -8.9329959e-08  3.649111e-08   0.24010639   
      2450   2.45           7.1576473e-09  0.00035034603 -336082.09      3.0092082e-08  4.9770056      27.83345       3417.964       0.00091005002  0.00077092494  0.0010139456  -9.3279374e-08  3.5581156e-08  0.24068679   
      2460   2.46           7.1576473e-09  0.00035250045 -336082.09      3.0092082e-08  4.9770056      27.83345       3417.964       0.0041601119  -0.0011064047   0.0003378392  -9.6256947e-08  3.4188191e-08  0.2414382    
      2470   2.47           7.1576473e-09  0.00035400793 -336082.09      3.0092082e-08  4.9770056      27.83345       3417.964      -0.00077582218  0.00074224975  0.0019084827  -9.8484293e-08  3.1318622e-08  0.24180496   
      2480   2.48           7.1576473e-09  0.00035174217 -336082.09      3.0092082e-08  4.9770056      27.83345       3417.964       0.0002997702   0.00062803265  0.0004417369  -9.8783789e-08  2.8558207e-08  0.24233722   
      2490   2.49           7.1576473e-09  0.00034733004 -336082.09      3.0092082e-08  4.9770056      27.83345       3417.964       0.0043520664   0.0034926522   0.0013269235  -9.7783293e-08  2.5222795e-08  0.24274283   
      2500   2.5            7.1576473e-09  0.00034145136 -336082.09      3.0092082e-08  4.9770056      27.83345       3417.964       0.0016222193   0.0065530752   0.0031305635  -9.5197802e-08  2.0926373e-08  0.24272135   
      2510   2.51           7.1576473e-09  0.00033261809 -336082.09      3.0092082e-08  4.9770056      27.83345       3417.964       0.00089200547  0.00047518628 -0.00047113777 -9.1378026e-08  1.6304814e-08  0.2429476    
      2520   2.52           7.1576473e-09  0.00032445381 -336082.09      3.0092082e-08  4.9770056      27.83345       3417.964       0.00011621583 -0.00035733722  0.0011807503  -8.7178269e-08  1.2270185e-08  0.24271404   
      2530   2.53           7.1576473e-09  0.00031278466 -336082.09      3.0092082e-08  4.9770056      27.83345       3417.964       0.0049817068   0.00059725171  0.0035393897  -8.1401921e-08  7.619996e-09   0.24251352   
      2540   2.54           7.1576473e-09  0.00030194014 -336082.09      3.0092082e-08  4.9770057      27.83345       3417.964       0.00053862063  0.0024454916   0.004368      -7.5469018e-08  3.4407452e-09  0.24198434   
      2550   2.55           7.1576473e-09  0.00028973918 -336082.09      3.0092082e-08  4.9770057      27.83345       3417.964       0.00086655853 -0.0001285626   2.5377025e-05 -6.9726284e-08 -6.3759787e-10  0.24191083   
      2560   2.56           7.1576473e-09  0.00027873885 -336082.09      3.0092082e-08  4.9770057      27.83345       3417.964      -5.1909608e-05  0.0010308423   0.00025585344 -6.3923133e-08 -3.8794432e-09  0.24145858   
      2570   2.57           7.1576473e-09  0.00026672101 -336082.09      3.0092082e-08  4.9770057      27.83345       3417.964       0.003446031    0.001792521    0.0012570958  -5.7818631e-08 -7.0943267e-09  0.24105254   
      2580   2.58           7.1576473e-09  0.00025519316 -336082.09      3.0092082e-08  4.9770057      27.83345       3417.964       0.00016928748  0.0033812097   0.00082282791 -5.1724019e-08 -1.0056574e-08  0.24045439   
      2590   2.59           7.1576473e-09  0.00024080193 -336082.09      3.0092082e-08  4.9770057      27.83345       3417.964      -0.00042676523  0.001015804    0.001194963   -4.4371772e-08 -1.3696601e-08  0.23971685   
      2600   2.6            7.1576473e-09  0.00022982594 -336082.09      3.0092082e-08  4.9770057      27.83345       3417.964       0.0008405949   0.00079157819  0.00045646712 -3.8883413e-08 -1.6422142e-08  0.23926417   
      2610   2.61           7.1576473e-09  0.00021993926 -336082.09      3.0092082e-08  4.9770057      27.83345       3417.964       0.00029595734  0.0003571201   0.00042733602 -3.3680266e-08 -1.8667016e-08  0.23870167   
      2620   2.62           7.1576473e-09  0.00021069029 -336082.09      3.0092082e-08  4.9770057      27.83345       3417.964       0.00072886235 -0.000605078    0.00075089426 -2.8636132e-08 -2.0572732e-08  0.23814504   
      2630   2.63           7.1576473e-09  0.00020058919 -336082.09      3.0092082e-08  4.9770057      27.83345       3417.964       0.002862492    0.00052650335  0.0014803194  -2.2895215e-08 -2.2705898e-08  0.23752136   
      2640   2.64           7.1576473e-09  0.000193659   -336082.09      3.0092082e-08  4.9770057      27.83345       3417.9639      5.5916021e-05  0.0010445987   0.0022389483  -1.858942e-08  -2.4043219e-08  0.23685545   
      2650   2.65           7.1576473e-09  0.00018739367 -336082.09      3.0092082e-08  4.9770057      27.83345       3417.9639      0.00032957769 -8.8838981e-05  0.00026706632 -1.4544944e-08 -2.536685e-08   0.23648711   
      2660   2.66           7.1576473e-09  0.00018239212 -336082.09      3.0092082e-08  4.9770057      27.83345       3417.9639      9.6891679e-05  0.00061131315  0.0005786885  -1.0913094e-08 -2.6341281e-08  0.23599267   
      2670   2.67           7.1576473e-09  0.00017831553 -336082.09      3.0092082e-08  4.9770057      27.83345       3417.9639      0.00087504573  0.0010166097   0.00021846178 -7.6598718e-09 -2.732131e-08   0.23560477   
      2680   2.68           7.1576473e-09  0.00017429013 -336082.09      3.0092082e-08  4.9770057      27.83345       3417.9639      0.0013410012   0.001025405   -0.00075819043 -3.7314448e-09 -2.7973726e-08  0.23515552   
      2690   2.69           7.1576473e-09  0.0001714464  -336082.09      3.0092082e-08  4.9770057      27.83345       3417.9639      0.00034009013  0.0010878416   0.00097771138 -3.6336057e-10 -2.8252686e-08  0.23453711   
      2700   2.7            7.1576473e-09  0.00016967179 -336082.09      3.0092082e-08  4.9770057      27.83345       3417.9639      0.00055526151  0.00040256372  6.2178645e-06  2.5385324e-09 -2.8264619e-08  0.23420406   
      2710   2.71           7.1576473e-09  0.00016830837 -336082.09      3.0092082e-08  4.9770057      27.83345       3417.9639     -0.0001242844   0.00019920436  0.00053258852  5.1172595e-09 -2.8503159e-08  0.23374983   
      2720   2.72           7.1576473e-09  0.00016758858 -336082.09      3.0092082e-08  4.9770057      27.83345       3417.9639      0.0019766648   0.00034499938  0.00083782015  7.9290603e-09 -2.8112286e-08  0.2334045    
      2730   2.73           7.1576473e-09  0.0001669966  -336082.09      3.0092082e-08  4.9770057      27.83345       3417.9639      0.00095482284 -0.00036907902  0.0017957262   1.0619308e-08 -2.7758463e-08  0.23288822   
      2740   2.74           7.1576473e-09  0.00016688358 -336082.09      3.0092082e-08  4.9770057      27.83345       3417.9639      1.1369224e-05  0.00014471115  0.00048625881  1.3516518e-08 -2.6530768e-08  0.23254314   
      2750   2.75           7.1576473e-09  0.00016697053 -336082.09      3.0092082e-08  4.9770057      27.83345       3417.9639      0.00031214127  0.00044683192  0.00034108756  1.5838688e-08 -2.5317086e-08  0.23223758   
      2760   2.76           7.1576473e-09  0.00016696657 -336082.09      3.0092082e-08  4.9770057      27.83345       3417.9639      0.00012039548  0.001070083    0.00058619854  1.7907243e-08 -2.41284e-08    0.23191248   
      2770   2.77           7.1576473e-09  0.00016723851 -336082.09      3.0092082e-08  4.9770057      27.83345       3417.9639      0.0018425072   0.00032769704 -0.00061655667  2.0101173e-08 -2.2618674e-08  0.23172466   
      2780   2.78           7.1576473e-09  0.00016645546 -336082.09      3.0092082e-08  4.9770057      27.83345       3417.9639      0.00038024444  0.0011674109   0.00081933438  2.1854482e-08 -2.1096562e-08  0.23130045   
      2790   2.79           7.1576473e-09  0.00016575307 -336082.09      3.0092082e-08  4.9770057      27.83345       3417.9639      0.00027041317  0.00034918915  0.00018453308  2.3157661e-08 -1.9619196e-08  0.23113562   
      2800   2.8            7.1576473e-09  0.00016435316 -336082.09      3.0092082e-08  4.9770057      27.83345       3417.9639     -0.00019898956  0.00020585105  0.00064220218  2.4387783e-08 -1.7632714e-08  0.23092765   
      2810   2.81           7.1576473e-09  0.00016223984 -336082.09      3.0092082e-08  4.9770057      27.83345       3417.9639      0.0020648144  -6.8283622e-05  0.001130137    2.5222875e-08 -1.5819338e-08  0.23084378   
      2820   2.82           7.1576473e-09  0.0001590687  -336082.09      3.0092082e-08  4.9770057      27.83345       3417.9639      0.0009906654  -0.0001452049   0.00085946111  2.5839528e-08 -1.3703466e-08  0.23074913   
      2830   2.83           7.1576473e-09  0.00015554281 -336082.09      3.0092082e-08  4.9770057      27.83345       3417.9639      0.00010982324  9.1322662e-05  0.00014682418  2.6142125e-08 -1.1721463e-08  0.23075106   
      2840   2.84           7.1576473e-09  0.00015129228 -336082.09      3.0092082e-08  4.9770057      27.83345       3417.9639     -0.00017152491  0.00082963914  0.00036734428  2.6215449e-08 -9.6690156e-09  0.23076145   
      2850   2.85           7.1576473e-09  0.00014600856 -336082.09      3.0092082e-08  4.9770057      27.83345       3417.9639      0.0014208402   0.0020861518   0.00068907301  2.5927978e-08 -7.571891e-09   0.23089541   
      2860   2.86           7.1576473e-09  0.00013982986 -336082.09      3.0092082e-08  4.9770057      27.83345       3417.9639      0.00039655101  0.00042816791 -0.00026134223  2.5548686e-08 -5.0408335e-09  0.23106086   
      2870   2.87           7.1576473e-09  0.00013409945 -336082.09      3.0092082e-08  4.9770057      27.83345       3417.9639      0.00022848941  3.1286243e-05  6.377887e-05   2.4858652e-08 -3.3315802e-09  0.2311946    
      2880   2.88           7.1576473e-09  0.00012775539 -336082.09      3.0092082e-08  4.9770057      27.83345       3417.9639      0.00028172822  0.00066431227  0.0015030857   2.422415e-08  -1.1242896e-09  0.23130525   
      2890   2.89           7.1576473e-09  0.00012115378 -336082.09      3.0092082e-08  4.9770057      27.83345       3417.9639      0.0014334893  -6.3379551e-05  0.0013599655   2.3233532e-08  7.9022608e-10  0.23160622   
      2900   2.9            7.1576473e-09  0.00011445256 -336082.09      3.0092082e-08  4.9770057      27.83345       3417.9639      7.822411e-05  -5.890051e-05   0.00024389584  2.2098496e-08  2.5394923e-09  0.23190946   
      2910   2.91           7.1576473e-09  0.00010887382 -336082.09      3.0092082e-08  4.9770057      27.83345       3417.9639      0.00053564307  0.00022128706 -0.00011924519  2.1008013e-08  3.8581782e-09  0.23221003   
      2920   2.92           7.1576473e-09  0.00010281657 -336082.09      3.0092082e-08  4.9770057      27.83345       3417.9639      0.00058501993  0.0014057051   0.0012426462   1.9762767e-08  5.124846e-09   0.23241647   
      2930   2.93           7.1576473e-09  9.708007e-05  -336082.09      3.0092082e-08  4.9770057      27.83345       3417.9639      0.00078222431  0.00048362695 -0.00027799353  1.8387187e-08  6.3201046e-09  0.23284363   
      2940   2.94           7.1576473e-09  9.2168862e-05 -336082.09      3.0092082e-08  4.9770057      27.83345       3417.9639     -1.291087e-05   8.2399332e-05  0.00016180268  1.7314693e-08  7.5357611e-09  0.23306427   
      2950   2.95           7.1576473e-09  8.7699881e-05 -336082.09      3.0092082e-08  4.9770057      27.83345       3417.9639      0.0010738713   9.349727e-05   0.00056477299  1.6046243e-08  8.2616602e-09  0.23336452   
      2960   2.96           7.1576473e-09  8.3346081e-05 -336082.09      3.0092082e-08  4.9770057      27.83345       3417.9639      0.00022500672  0.00068291504  0.0012474607   1.4713216e-08  8.8730071e-09  0.23358618   
      2970   2.97           7.1576473e-09  7.9496956e-05 -336082.09      3.0092082e-08  4.9770057      27.83345       3417.9639      0.00025143783 -6.2775485e-05  3.7405835e-05  1.3524785e-08  9.6739566e-09  0.23396389   
      2980   2.98           7.1576473e-09  7.6385023e-05 -336082.09      3.0092082e-08  4.9770057      27.83345       3417.9639     -1.2414825e-05  0.00039116043  8.5487229e-05  1.2510457e-08  1.0295077e-08  0.23420804   
      2990   2.99           7.1576473e-09  7.321959e-05  -336082.09      3.0092082e-08  4.9770057      27.83345       3417.9639      0.0011003918   0.0006975144   0.0003957092   1.1302631e-08  1.0649252e-08  0.23450553   
      3000   3              7.1576473e-09  7.0131156e-05 -336082.09      3.0092082e-08  4.9770057      27.83345       3417.9639     -0.0001934899   0.0005012563   0.00032887657  1.0143521e-08  1.107068e-08   0.23474187   
Loop time of 1293.63 on 1 procs for 1000 steps with 32526 atoms

97.1% CPU use with 1 MPI tasks x 1 OpenMP threads

Minimization stats:
  Stopping criterion = max force evaluations
  Energy initial, next-to-last, final = 
     -336082.086079686  -336082.086079686  -336082.086079688
  Force two-norm initial, final = 0.016964636 0.00019889623
  Force max component initial, final = 0.016556328 0.00014807329
  Final line search alpha, max atom move = 1 0.00014807329
  Iterations, force evaluations = 1000 2000

MPI task timing breakdown:
Section |  min time  |  avg time  |  max time  |%varavg| %total
---------------------------------------------------------------
Pair    | 1252.5     | 1252.5     | 1252.5     |   0.0 | 96.82
Neigh   | 31.802     | 31.802     | 31.802     |   0.0 |  2.46
Comm    | 3.6465     | 3.6465     | 3.6465     |   0.0 |  0.28
Output  | 0.02051    | 0.02051    | 0.02051    |   0.0 |  0.00
Modify  | 0          | 0          | 0          |   0.0 |  0.00
Other   |            | 5.683      |            |       |  0.44

Nlocal:          32526 ave       32526 max       32526 min
Histogram: 1 0 0 0 0 0 0 0 0 0
Nghost:         150324 ave      150324 max      150324 min
Histogram: 1 0 0 0 0 0 0 0 0 0
Neighs:              0 ave           0 max           0 min
Histogram: 1 0 0 0 0 0 0 0 0 0
FullNghs:  3.69295e+06 ave 3.69295e+06 max 3.69295e+06 min
Histogram: 1 0 0 0 0 0 0 0 0 0

Total # of neighbors = 3692952
Ave neighs/atom = 113.53846
Neighbor list builds = 406
Dangerous builds = 245
unfix           3
min_style       fire
minimize        0.0 1.0e-8 2000 4000
Switching to 'neigh_modify every 1 delay 0 check yes' setting during minimization
  Parameters for fire:
    dmax  delaystep dtgrow dtshrink alpha0 alphashrink tmax tmin   integrator   halfstepback   abcfire  
     0.1     20      1.1     0.5     0.25     0.99      10  0.02 eulerimplicit      yes          no     
Per MPI rank memory allocation (min/avg/max) = 51.49 | 51.49 | 51.49 Mbytes
   Step          Time           Temp          Fnorm          PotEng         KinEng           Lx             Ly             Lz            Pxx            Pyy            Pzz            Pxy            Pxz            Pyz      
      3000   3              0              7.0131155e-05 -336082.09      0              4.9770057      27.83345       3417.9639     -0.00019348989  0.00050105413  0.0003288755   1.0128743e-08  1.1035906e-08  0.23474186   
      3010   3.01           5.2740758e-12  6.6109628e-05 -336082.09      2.2173197e-11  4.9770057      27.83345       3417.9639     -0.0002207975   0.00036548239  0.00041447838  9.8252284e-09  1.0646737e-08  0.23478253   
      3020   3.02           1.9580988e-11  5.5793908e-05 -336082.09      8.232212e-11   4.9770057      27.83345       3417.9639     -0.0002738544  -5.1726008e-05  0.00067663067  8.7299187e-09  9.1249164e-09  0.23493746   
      3030   7.1445815      4.5539296e-11  3.4007488e-05 -336082.09      1.9145568e-10  4.9770057      27.83345       3417.9639     -0.00028247323 -0.00095677577  0.00140852     5.4697923e-09  5.0147099e-09  0.23531134   
      3040   18.592363      7.2222239e-11  6.4632155e-06 -336082.09      3.0363574e-10  4.9770057      27.83345       3417.9639      0.0016029373  -0.0015259426   0.0018061307  -1.2960548e-09 -1.131565e-09   0.23434703   
      3050   11.285381      3.4527477e-13  6.3027564e-06 -336082.09      1.4515994e-12  4.9770057      27.83345       3417.9639      0.0018874653  -0.0014424378   0.0014703697   1.9395e-10     1.5889305e-10  0.23410132   
      3060   11.322382      1.2918668e-12  4.5233547e-06 -336082.09      5.4312484e-12  4.9770057      27.83345       3417.9639      0.0015741438  -0.0013900837   0.0015698873  -2.0361414e-11  7.2731787e-12  0.23433692   
      3070   22.136225      2.8731706e-12  4.0120918e-06 -336082.09      1.2079344e-11  4.9770057      27.83345       3417.9639      0.0014052637  -0.0013662759   0.0015700991   3.4631444e-12  8.7759302e-12  0.23447364   
      3080   30.8           8.0560018e-12  3.9916097e-06 -336082.09      3.3868932e-11  4.9770057      27.83345       3417.9639      0.0014273502  -0.0013833745   0.0015939756  -1.9913589e-11  2.117932e-11   0.23445808   
      3090   30.9           1.6650175e-11  3.970883e-06  -336082.09      7.0000436e-11  4.9770057      27.83345       3417.9639      0.0014195476  -0.0013840997   0.001597426   -2.0882521e-11 -9.6098905e-11  0.2344627    
      3100   31             2.8770761e-11  3.9506169e-06 -336082.09      1.2095764e-10  4.9770057      27.83345       3417.9639      0.0014197503  -0.0013816913   0.0015930977   2.612779e-11   3.8891884e-11  0.23446197   
      3110   31.1           4.4584991e-11  3.9276017e-06 -336082.09      1.8744361e-10  4.9770057      27.83345       3417.9639      0.0014198444  -0.0013812526   0.0015922947   1.3068769e-11 -1.867129e-11   0.23446198   
      3120   31.2           6.4208797e-11  3.9007819e-06 -336082.09      2.6994574e-10  4.9770057      27.83345       3417.9639      0.0014194946  -0.0013811519   0.0015924612  -2.8289083e-11  6.2472557e-11  0.23446218   
      3130   31.3           8.7705621e-11  3.8699481e-06 -336082.09      3.6873076e-10  4.9770057      27.83345       3417.9639      0.0014193509  -0.001381153    0.0015925761  -7.3744457e-11  4.7409298e-11  0.23446232   
      3140   31.4           1.1509441e-10  3.8350255e-06 -336082.09      4.8387833e-10  4.9770057      27.83345       3417.9639      0.0014193023  -0.0013811372   0.0015925945  -5.7416296e-11  1.6352593e-11  0.23446235   
      3150   31.5           1.4635204e-10  3.7960546e-06 -336082.09      6.1529123e-10  4.9770057      27.83345       3417.9639      0.0014193018  -0.001381134    0.0015925839   9.8642245e-12 -1.0990889e-11  0.23446235   
      3160   31.6           1.8141594e-10  3.7531331e-06 -336082.09      7.6270638e-10  4.9770057      27.83345       3417.9639      0.0014193153  -0.0013811424   0.001592577    5.5300351e-13 -1.2381657e-10  0.23446233   
      3170   31.7           2.2018783e-10  3.7063979e-06 -336082.09      9.2571065e-10  4.9770057      27.83345       3417.9639      0.0014193234  -0.0013811488   0.0015925722   2.2160757e-10 -6.9200179e-12  0.23446233   
      3180   31.8           2.6253741e-10  3.6560115e-06 -336082.09      1.1037562e-09  4.9770057      27.83345       3417.9639      0.0014193227  -0.0013811442   0.0015925634   1.0099554e-10 -1.5234577e-11  0.23446232   
      3190   31.9           3.083051e-10   3.6021539e-06 -336082.09      1.296172e-09   4.9770057      27.83345       3417.9639      0.0014193212  -0.0013811391   0.0015925561   4.8510861e-11  6.1205728e-12  0.23446232   
      3200   32             3.5730562e-10  3.545018e-06  -336082.09      1.5021794e-09  4.9770057      27.83345       3417.9639      0.0014193193  -0.0013811367   0.001592553    1.6519409e-11  2.0497093e-11  0.23446232   
      3210   32.1           4.0933141e-10  3.4848051e-06 -336082.09      1.7209055e-09  4.9770057      27.83345       3417.9639      0.0014193181  -0.0013811362   0.0015925532  -7.1577056e-11 -1.6012976e-11  0.23446232   
      3220   32.2           4.6415591e-10  3.4217195e-06 -336082.09      1.9513979e-09  4.9770057      27.83345       3417.9639      0.0014193174  -0.0013811364   0.0015925528  -2.5153682e-11  4.2692264e-11  0.23446232   
      3230   32.3           5.2153663e-10  3.3559657e-06 -336082.09      2.1926371e-09  4.9770057      27.83345       3417.9639      0.0014193168  -0.0013811372   0.0015925532   7.8295068e-11  4.3832828e-11  0.23446232   
      3240   32.4           5.8121807e-10  3.2877455e-06 -336082.09      2.443549e-09   4.9770057      27.83345       3417.9639      0.0014193146  -0.0013811362   0.0015925529  -1.7610071e-10 -7.3762503e-11  0.23446232   
      3250   32.5           6.4293464e-10  3.217258e-06  -336082.09      2.703017e-09   4.9770057      27.83345       3417.9639      0.0014193132  -0.0013811355   0.0015925515   2.1906899e-10  1.0799745e-10  0.23446232   
      3260   32.6           7.0641309e-10  3.1446966e-06 -336082.09      2.9698922e-09  4.9770057      27.83345       3417.9639      0.0014193118  -0.0013811341   0.0015925483  -2.3015267e-10 -1.789198e-10   0.23446232   
      3270   32.7           7.7137526e-10  3.0702461e-06 -336082.09      3.2430052e-09  4.9770057      27.83345       3417.9639      0.0014193106  -0.0013811322   0.001592546    4.5807797e-11  2.6361908e-10  0.23446231   
      3280   32.8           8.3753978e-10  2.9940898e-06 -336082.09      3.5211732e-09  4.9770057      27.83345       3417.9639      0.0014193084  -0.0013811311   0.001592545    3.8141204e-11 -1.0456073e-10  0.23446231   
[...]
     17350   173.5          7.9192825e-11  9.7396089e-08 -336082.09      3.3294138e-10  4.9770057      27.83345       3417.9639     -1.2150762e-05  3.6193116e-05  1.7395414e-05 -5.8056819e-11  9.756256e-11   0.23454875   
     17360   173.6          7.9359333e-11  9.5956365e-08 -336082.09      3.3364142e-10  4.9770057      27.83345       3417.9639     -1.2156926e-05  3.6191326e-05  1.7404941e-05  6.4536768e-10  1.2637811e-09  0.23454875   
     17370   173.7          7.9524075e-11  9.4418989e-08 -336082.09      3.3433402e-10  4.9770057      27.83345       3417.9639     -1.2152364e-05  3.6196505e-05  1.7396904e-05 -3.3554299e-10 -4.3756787e-10  0.23454875   
     17380   173.8          7.9686965e-11  9.2893675e-08 -336082.09      3.3501884e-10  4.9770057      27.83345       3417.9639     -1.2154357e-05  3.6195749e-05  1.7401216e-05 -2.7458893e-10 -9.7830345e-10  0.23454875   
     17390   173.9          7.9847918e-11  9.1346619e-08 -336082.09      3.3569551e-10  4.9770057      27.83345       3417.9639     -1.2154314e-05  3.6197799e-05  1.7399389e-05  2.3972433e-10  6.9775173e-10  0.23454875   
     17400   174            8.0006847e-11  8.9682821e-08 -336082.09      3.3636368e-10  4.9770057      27.83345       3417.9639     -1.2156265e-05  3.6198003e-05  1.740089e-05   3.1306756e-10  3.7690609e-10  0.23454875   
     17410   174.1          8.0163665e-11  8.8049341e-08 -336082.09      3.3702298e-10  4.9770057      27.83345       3417.9639     -1.2151172e-05  3.6190376e-05  1.7400595e-05 -1.8559488e-10  5.4821311e-10  0.23454876   
     17420   174.2          8.0318286e-11  8.6400195e-08 -336082.09      3.3767303e-10  4.9770057      27.83345       3417.9639     -1.2155476e-05  3.6197773e-05  1.7396437e-05 -1.7204786e-10 -1.6078017e-09  0.23454874   
     17430   174.3          8.0470622e-11  8.4661201e-08 -336082.09      3.3831348e-10  4.9770057      27.83345       3417.9639     -1.2152389e-05  3.6184068e-05  1.7403244e-05 -4.5693946e-11  6.4656009e-10  0.23454876   
     17440   174.4          8.0620587e-11  8.2956588e-08 -336082.09      3.3894396e-10  4.9770057      27.83345       3417.9639     -1.2157329e-05  3.6194387e-05  1.7398146e-05  5.0273029e-10  5.6394959e-10  0.23454874   
     17450   174.5          8.0768095e-11  8.1238024e-08 -336082.09      3.3956411e-10  4.9770057      27.83345       3417.9639     -1.2149618e-05  3.6184736e-05  1.7400165e-05 -4.0684252e-10  1.7993263e-10  0.23454876   
     17460   174.6          8.0913062e-11  7.9460565e-08 -336082.09      3.4017358e-10  4.9770057      27.83345       3417.9639     -1.2155313e-05  3.6191903e-05  1.739822e-05  -9.4603709e-11 -1.3551074e-09  0.23454875   
     17470   174.7          8.1055405e-11  7.772497e-08  -336082.09      3.4077202e-10  4.9770057      27.83345       3417.9639     -1.2153576e-05  3.6192521e-05  1.7399796e-05  1.5316769e-10  4.8553468e-10  0.23454875   
     17480   174.8          8.1195042e-11  7.6012717e-08 -336082.09      3.4135908e-10  4.9770057      27.83345       3417.9639     -1.2156965e-05  3.619252e-05   1.7404339e-05 -1.4011808e-10  2.1817684e-10  0.23454875   
     17490   174.9          8.1331894e-11  7.4237254e-08 -336082.09      3.4193443e-10  4.9770057      27.83345       3417.9639     -1.2149545e-05  3.6200056e-05  1.7392063e-05  5.407784e-10   1.1503678e-09  0.23454875   
     17500   175            8.1465883e-11  7.2544011e-08 -336082.09      3.4249774e-10  4.9770057      27.83345       3417.9639     -1.2158238e-05  3.6192838e-05  1.7408451e-05 -8.4203985e-10 -2.2935857e-09  0.23454876   
     17510   175.1          8.1596936e-11  7.0884324e-08 -336082.09      3.4304871e-10  4.9770057      27.83345       3417.9639     -1.2150628e-05  3.6200352e-05  1.7391329e-05  4.9074686e-10  1.0773236e-09  0.23454875   
     17520   175.2          8.172498e-11   6.9210423e-08 -336082.09      3.4358703e-10  4.9770057      27.83345       3417.9639     -1.2160021e-05  3.619333e-05   1.7410037e-05 -1.6997711e-10 -2.2978985e-10  0.23454876   
     17530   175.3          8.1849947e-11  6.76084e-08   -336082.09      3.4411242e-10  4.9770057      27.83345       3417.9639     -1.2147536e-05  3.6195798e-05  1.7389687e-05  1.4092954e-10  1.2380455e-09  0.23454875   
     17540   175.4          8.1971771e-11  6.6079939e-08 -336082.09      3.4462459e-10  4.9770057      27.83345       3417.9639     -1.2158306e-05  3.6188256e-05  1.7406775e-05  2.0537141e-10 -1.6492587e-09  0.23454875   
     17550   175.5          8.2090392e-11  6.4572599e-08 -336082.09      3.4512329e-10  4.9770057      27.83345       3417.9639     -1.2151864e-05  3.6191237e-05  1.7396936e-05 -9.9109685e-10  1.2047002e-10  0.23454875   
     17560   175.6          8.220575e-11   6.3169476e-08 -336082.09      3.4560828e-10  4.9770057      27.83345       3417.9639     -1.215546e-05   3.6188986e-05  1.7400359e-05  1.2843488e-09  5.561655e-10   0.23454875   
     17570   175.7          8.2317792e-11  6.1851134e-08 -336082.09      3.4607932e-10  4.9770057      27.83345       3417.9639     -1.2152869e-05  3.6187707e-05  1.7400141e-05 -8.2818478e-10  1.0433201e-09  0.23454875   
     17580   175.8          8.2426468e-11  6.0578082e-08 -336082.09      3.4653622e-10  4.9770057      27.83345       3417.9639     -1.2152995e-05  3.6191962e-05  1.7396669e-05  7.4613328e-10 -1.6425656e-09  0.23454875   
     17590   175.9          8.2531732e-11  5.9440183e-08 -336082.09      3.4697877e-10  4.9770057      27.83345       3417.9639     -1.2155784e-05  3.6190144e-05  1.7405329e-05 -1.0486803e-09  4.7250309e-10  0.23454876   
     17600   176            8.2633544e-11  5.8413974e-08 -336082.09      3.4740681e-10  4.9770057      27.83345       3417.9639     -1.2153438e-05  3.6200304e-05  1.7393789e-05  7.3937104e-10 -2.9732207e-10  0.23454874   
     17610   176.1          8.2731868e-11  5.7496271e-08 -336082.09      3.4782018e-10  4.9770057      27.83345       3417.9639     -1.2154484e-05  3.6192629e-05  1.7404668e-05  4.2839523e-11  1.4806415e-09  0.23454876   
     17620   176.2          8.2826671e-11  5.670151e-08  -336082.09      3.4821875e-10  4.9770057      27.83345       3417.9639     -1.2154305e-05  3.6199882e-05  1.7397303e-05 -2.8640632e-10 -1.5466079e-09  0.23454875   
     17630   176.3          8.2917927e-11  5.6068846e-08 -336082.09      3.486024e-10   4.9770057      27.83345       3417.9639     -1.2153847e-05  3.6195821e-05  1.7401123e-05 -9.8286124e-11 -1.2834126e-10  0.23454875   
     17640   176.4          8.3005614e-11  5.555763e-08  -336082.09      3.4897106e-10  4.9770057      27.83345       3417.9639     -1.2154494e-05  3.6196927e-05  1.7398889e-05  9.0286387e-11  8.3957539e-10  0.23454875   
     17650   176.5          8.3089715e-11  5.5214361e-08 -336082.09      3.4932463e-10  4.9770057      27.83345       3417.9639     -1.2155619e-05  3.6191577e-05  1.7399718e-05  6.8850399e-10  5.0574325e-10  0.23454875   
     17660   176.6          8.3170218e-11  5.5005246e-08 -336082.09      3.4966309e-10  4.9770057      27.83345       3417.9639     -1.215111e-05   3.6187568e-05  1.7401769e-05 -9.8391085e-10 -8.1264966e-10  0.23454876   
     17670   176.7          8.3247117e-11  5.4971967e-08 -336082.09      3.4998638e-10  4.9770057      27.83345       3417.9639     -1.215589e-05   3.619374e-05   1.7396309e-05  5.4430528e-10 -3.9462917e-10  0.23454874   
     17680   176.8          8.332041e-11   5.5085619e-08 -336082.09      3.5029452e-10  4.9770057      27.83345       3417.9639     -1.2152638e-05  3.618493e-05   1.7401143e-05 -4.5227725e-10  2.7280971e-10  0.23454876   
     17690   176.9          8.3390099e-11  5.5341414e-08 -336082.09      3.5058751e-10  4.9770057      27.83345       3417.9639     -1.215587e-05   3.6192869e-05  1.740013e-05   9.6791139e-10  1.4464216e-09  0.23454875   
     17700   177            8.3456194e-11  5.5754994e-08 -336082.09      3.5086538e-10  4.9770057      27.83345       3417.9639     -1.2151108e-05  3.6188879e-05  1.7398778e-05 -8.3395598e-10 -1.3424875e-09  0.23454875   
     17710   177.1          8.3518707e-11  5.6317002e-08 -336082.09      3.511282e-10   4.9770057      27.83345       3417.9639     -1.2155665e-05  3.619734e-05   1.7399572e-05 -1.3652132e-10 -5.6936839e-10  0.23454875   
     17720   177.2          8.3577657e-11  5.6989467e-08 -336082.09      3.5137603e-10  4.9770057      27.83345       3417.9639     -1.2154122e-05  3.6195321e-05  1.7399194e-05  8.1223716e-10  1.1711504e-09  0.23454875   
     17730   177.3          8.3633065e-11  5.7805812e-08 -336082.09      3.5160898e-10  4.9770057      27.83345       3417.9639     -1.2156666e-05  3.6195421e-05  1.7403891e-05 -6.413975e-10  -4.3380507e-11  0.23454875   
     17740   177.4          8.3684961e-11  5.8755378e-08 -336082.09      3.5182716e-10  4.9770057      27.83345       3417.9639     -1.2149347e-05  3.6198349e-05  1.7394946e-05  6.5818437e-10  4.6776051e-10  0.23454875   
     17750   177.5          8.3733375e-11  5.9766621e-08 -336082.09      3.520307e-10   4.9770057      27.83345       3417.9639     -1.2158996e-05  3.6195933e-05  1.740302e-05  -1.0151509e-09 -1.9814589e-09  0.23454875   
     17760   177.6          8.3778344e-11  6.09156e-08   -336082.09      3.5221976e-10  4.9770057      27.83345       3417.9639     -1.215064e-05   3.6191796e-05  1.7397765e-05  7.4934159e-10  1.3319174e-09  0.23454875   
     17770   177.7          8.3819909e-11  6.2165077e-08 -336082.09      3.5239451e-10  4.9770057      27.83345       3417.9639     -1.2158397e-05  3.6192549e-05  1.7403531e-05  7.7837858e-11  6.050159e-10   0.23454875   
     17780   177.8          8.3858114e-11  6.3451311e-08 -336082.09      3.5255513e-10  4.9770057      27.83345       3417.9639     -1.2147982e-05  3.618905e-05   1.7394041e-05 -4.8801117e-10 -5.4343446e-10  0.23454875   
     17790   177.9          8.3893008e-11  6.4824366e-08 -336082.09      3.5270183e-10  4.9770057      27.83345       3417.9639     -1.2158885e-05  3.6189788e-05  1.7402449e-05  4.0435852e-10 -8.0552377e-10  0.23454875   
     17800   178            8.3924643e-11  6.6286924e-08 -336082.09      3.5283483e-10  4.9770057      27.83345       3417.9639     -1.2150529e-05  3.6188124e-05  1.739888e-05  -5.0983967e-10  4.4430607e-10  0.23454875   
     17810   178.1          8.3953074e-11  6.7749238e-08 -336082.09      3.5295436e-10  4.9770057      27.83345       3417.9639     -1.215806e-05   3.6192206e-05  1.7402395e-05  6.3480506e-10  5.6911894e-10  0.23454875   
     17820   178.2          8.397836e-11   6.9262903e-08 -336082.09      3.5306066e-10  4.9770057      27.83345       3417.9639     -1.2148704e-05  3.6193821e-05  1.7392918e-05 -1.811303e-10   6.6560555e-10  0.23454875   
     17830   178.3          8.4000563e-11  7.0852953e-08 -336082.09      3.5315401e-10  4.9770057      27.83345       3417.9639     -1.2159537e-05  3.6194912e-05  1.7407644e-05 -3.477338e-10  -2.534117e-09   0.23454875   
     17840   178.4          8.4019746e-11  7.239479e-08  -336082.09      3.5323466e-10  4.9770057      27.83345       3417.9639     -1.2149003e-05  3.6196856e-05  1.7393249e-05  1.6916037e-10  1.7733833e-09  0.23454875   
     17850   178.5          8.4035977e-11  7.398634e-08  -336082.09      3.533029e-10   4.9770057      27.83345       3417.9639     -1.2161243e-05  3.6198043e-05  1.7407237e-05  7.0814898e-11 -3.1560716e-10  0.23454875   
     17860   178.6          8.4049325e-11  7.5612165e-08 -336082.09      3.5335901e-10  4.9770057      27.83345       3417.9639     -1.2146475e-05  3.6198574e-05  1.7389919e-05  1.2246637e-10  9.3905542e-10  0.23454875   
     17870   178.7          8.4059858e-11  7.7177578e-08 -336082.09      3.534033e-10   4.9770057      27.83345       3417.9639     -1.2160858e-05  3.6189515e-05  1.7409582e-05 -8.6787317e-11 -1.7602706e-09  0.23454875   
     17880   178.8          8.4067651e-11  7.8748253e-08 -336082.09      3.5343606e-10  4.9770057      27.83345       3417.9639     -1.214912e-05   3.6195995e-05  1.7393529e-05 -6.7299669e-10  2.0139747e-10  0.23454875   
     17890   178.9          8.4072777e-11  8.0373506e-08 -336082.09      3.5345761e-10  4.9770057      27.83345       3417.9639     -1.2158604e-05  3.6189744e-05  1.7402498e-05  1.0408023e-09  9.8233374e-10  0.23454875   
     17900   179            8.4075308e-11  8.1895082e-08 -336082.09      3.5346825e-10  4.9770057      27.83345       3417.9639     -1.2150495e-05  3.6187331e-05  1.7398069e-05 -4.1024393e-10  6.4843548e-10  0.23454875   
     17910   89.55          2.2361318e-17  8.1049942e-08 -336082.09      9.4011147e-17  4.9770057      27.83345       3417.9639     -1.2151085e-05  3.6193671e-05  1.7393869e-05  5.7692181e-10  1.1694133e-09  0.23454875   
     17920   89.6           1.9066308e-16  7.4535088e-08 -336082.09      8.015831e-16   4.9770057      27.83345       3417.9639     -1.2154766e-05  3.619031e-05   1.740089e-05   1.4834847e-11 -1.5476809e-10  0.23454875   
     17930   131.25657      6.1967846e-16  7.3823031e-08 -336082.09      2.6052437e-15  4.9770057      27.83345       3417.9639     -1.2154152e-05  3.619084e-05   1.7399598e-05 -9.7338655e-12  1.00571e-10    0.23454875   
     17940   179.4          2.1017908e-15  7.3649765e-08 -336082.09      8.8363201e-15  4.9770057      27.83345       3417.9639     -1.2153962e-05  3.619059e-05   1.739967e-05  -5.5480404e-12  2.5044323e-11  0.23454875   
     17950   179.5          4.6928329e-15  7.3315084e-08 -336082.09      1.9729544e-14  4.9770057      27.83345       3417.9639     -1.2154264e-05  3.61906e-05    1.7399948e-05  3.8118734e-11  2.3349255e-11  0.23454875   
     17960   179.6          8.4593983e-15  7.3006701e-08 -336082.09      3.5564886e-14  4.9770057      27.83345       3417.9639     -1.2154229e-05  3.6190892e-05  1.739951e-05  -5.3324e-12     8.448289e-12   0.23454875   
     17970   179.7          1.3472212e-14  7.26636e-08   -336082.09      5.6639688e-14  4.9770057      27.83345       3417.9639     -1.2154237e-05  3.6190732e-05  1.7399812e-05  1.9370805e-11  5.6847878e-11  0.23454875   
     17980   179.8          1.9778906e-14  7.2266206e-08 -336082.09      8.3154204e-14  4.9770057      27.83345       3417.9639     -1.2154145e-05  3.6190675e-05  1.7399923e-05 -4.2471361e-11 -1.4534303e-11  0.23454875   
     17990   179.9          2.7410996e-14  7.1805764e-08 -336082.09      1.1524093e-13  4.9770057      27.83345       3417.9639     -1.2154265e-05  3.6190793e-05  1.7399723e-05 -2.1626387e-11  6.1199754e-11  0.23454875   
     18000   180            3.6385254e-14  7.1277872e-08 -336082.09      1.5297038e-13  4.9770057      27.83345       3417.9639     -1.2154212e-05  3.6190794e-05  1.7399397e-05 -2.1330351e-11 -3.7498862e-11  0.23454875   
     18010   180.1          4.670418e-14   7.0680303e-08 -336082.09      1.9635307e-13  4.9770057      27.83345       3417.9639     -1.2153743e-05  3.6190673e-05  1.7399479e-05  7.2261272e-11  1.5574185e-11  0.23454875   
     18020   180.2          5.8357535e-14  7.0011306e-08 -336082.09      2.4534595e-13  4.9770057      27.83345       3417.9639     -1.2154539e-05  3.6191045e-05  1.7399754e-05 -1.5161688e-11 -3.3483596e-11  0.23454875   
     18030   180.3          7.1321473e-14  6.9270805e-08 -336082.09      2.9984875e-13  4.9770057      27.83345       3417.9639     -1.2154034e-05  3.619087e-05   1.7399569e-05  4.1550194e-11  7.0014706e-11  0.23454875   
     18040   180.4          8.5561186e-14  6.8458406e-08 -336082.09      3.5971516e-13  4.9770057      27.83345       3417.9639     -1.2153737e-05  3.6190534e-05  1.7399686e-05 -1.3402605e-10  2.5867813e-11  0.23454875   
     18050   180.5          1.0103074e-13  6.75738e-08   -336082.09      4.2475202e-13  4.9770057      27.83345       3417.9639     -1.2154057e-05  3.6191094e-05  1.7399686e-05 -1.4151109e-10 -4.4760003e-11  0.23454875   
     18060   180.6          1.176738e-13   6.6618004e-08 -336082.09      4.9472255e-13  4.9770057      27.83345       3417.9639     -1.215372e-05   3.6190545e-05  1.739948e-05   2.9003162e-10  1.1705584e-10  0.23454875   
     18064   180.64         1.2464483e-13  6.6216276e-08 -336082.09      5.2403006e-13  4.9770057      27.83345       3417.9639     -1.2154429e-05  3.6190206e-05  1.7400204e-05 -1.8832381e-10  6.428634e-12   0.23454875   
Loop time of 2505.22 on 1 procs for 4000 steps with 32526 atoms

97.2% CPU use with 1 MPI tasks x 1 OpenMP threads

Minimization stats:
  Stopping criterion = max iterations
  Energy initial, next-to-last, final = 
     -336082.086079716   -336082.08607971  -336082.086079712
  Force two-norm initial, final = 2.1014536e-07 6.6216276e-08
  Force max component initial, final = 3.4254658e-09 7.6313184e-10
  Final line search alpha, max atom move = 0 0
  Iterations, force evaluations = 4000 4002

MPI task timing breakdown:
Section |  min time  |  avg time  |  max time  |%varavg| %total
---------------------------------------------------------------
Pair    | 2497       | 2497       | 2497       |   0.0 | 99.67
Neigh   | 0          | 0          | 0          |   0.0 |  0.00
Comm    | 5.3449     | 5.3449     | 5.3449     |   0.0 |  0.21
Output  | 0.096781   | 0.096781   | 0.096781   |   0.0 |  0.00
Modify  | 0          | 0          | 0          |   0.0 |  0.00
Other   |            | 2.81       |            |       |  0.11

Nlocal:          32526 ave       32526 max       32526 min
Histogram: 1 0 0 0 0 0 0 0 0 0
Nghost:         150324 ave      150324 max      150324 min
Histogram: 1 0 0 0 0 0 0 0 0 0
Neighs:              0 ave           0 max           0 min
Histogram: 1 0 0 0 0 0 0 0 0 0
FullNghs:  3.69295e+06 ave 3.69295e+06 max 3.69295e+06 min
Histogram: 1 0 0 0 0 0 0 0 0 0

Total # of neighbors = 3692952
Ave neighs/atom = 113.53846
Neighbor list builds = 0
Dangerous builds = 0


write_data      fire_cg_${name}.data
write_data      fire_cg_Ta7Fe6_x-12-10_y10-11_z10-12.data
System init for write_data ...

write_data      bi_minimised.data
System init for write_data ...

print """- step: $(step)
  atoms: $(atoms)
  temp: $(temp)
  press: $(press)
  pe: $(pe)
  ke: $(ke)
  etotal: $(etotal)
  vol: $(vol)
  avecx: $(avecx)
  avecy: $(avecy)
  avecz: $(avecz)
  bvecx: $(bvecx)
  bvecy: $(bvecy)
  bvecz: $(bvecz)
  cvecx: $(cvecx)
  cvecy: $(cvecy)
  cvecz: $(cvecz)
  lx: $(lx)
  ly: $(ly)
  lz: $(lz)
  cella: $(cella)
  cellb: $(cellb)
  cellc: $(cellc)
  cellalpha: $(cellalpha)
  cellbeta: $(cellbeta)
  cellgamma: $(cellgamma)
  pxx: $(pxx)
  pyy: $(pyy)
  pzz: $(pzz)
  pxy: $(pxy)
  pyz: $(pyz)
  pxz: $(pxz)
  xlo: $(xlo)
  xhi: $(xhi)
  ylo: $(ylo)
  yhi: $(yhi)
  zlo: $(zlo)
  zhi: $(zhi)
  xy: $(xy)
  xz: $(xz)
  yz: $(yz)
""" file bi_minimised.data.yaml screen yes universe no
- step: 18064
  atoms: 32526
  temp: 1.2464482704572751019e-13
  press: 1.3811993542268366863e-05
  pe: -336082.08607971150195
  ke: 5.2403006377693227785e-13
  etotal: -336082.08607971150195
  vol: 473481.11268312239554
  avecx: 4.977005692511312418
  avecy: 0
  avecz: 0
  bvecx: 0
  bvecy: 27.833450383970244957
  bvecz: 0
  cvecx: 0
  cvecy: 0
  cvecz: 3417.9639271961700615
  lx: 4.977005692511312418
  ly: 27.833450383970244957
  lz: 3417.9639271961700615
  cella: 4.977005692511312418
  cellb: 27.833450383970244957
  cellc: 3417.9639271961700615
  cellalpha: 90
  cellbeta: 90
  cellgamma: 90
  pxx: -1.2154429312402978961e-05
  pyy: 3.619020612628645378e-05
  pzz: 1.7400203812921624078e-05
  pxy: -1.8832381139821915634e-10
  pyz: 0.23454875151140069933
  pxz: 6.4286340082121826092e-12
  xlo: -3.7437160649282853017e-08
  xhi: 4.9770056550741514911
  ylo: -7.1927102516712457062e-08
  yhi: 27.833450312043140684
  zlo: 5.1188133437239988601e-05
  zhi: 3417.963978384303573
  xy: 0
  xz: 0
  yz: 0

[GRACE:debug, proc #0]: Data preparation timer: 1.16319e+09 mcs, graph execution time: 1.17465e+10 mcs, data preparation time fraction: 9.01 %
Total wall time: 3:36:50
