 # Ta7Fe6 with mu structure with box vectors H1=-12-10, H2=10-11, H3=10-12.
  
       32526  atoms
           2  atom types
 
      0.000000000000       4.977005617637  xlo xhi
      0.000000000000      27.833450240116  ylo yhi
      0.000000000000    3417.964029572432  zlo zhi
 
Masses
 
            1   55.84500000             # Fe
            2   180.94788000            # Ta
 
Atoms # atomic
 
         1    1        2.488502808819      12.988245473185    3413.128061281191
         2    1        2.488502808819      15.658117663406    3404.931504855358
         3    1        2.488502808819      18.327989853628    3396.734948429524
         4    1        2.488502808819      20.997862043849    3388.538392003691
         5    1        2.488502808819      23.667734234070    3380.341835577858
         6    1        2.488502808819      26.337606424291    3372.145279152025
         7    1        2.488502808819       1.174028374397    3363.948722726192
         8    1        2.488502808819       3.843900564618    3355.752166300359
         9    1        2.488502808819       6.513772754839    3347.555609874525
        10    1        2.488502808819       9.183644945060    3339.359053448692
        11    1        2.488502808819      11.853517135281    3331.162497022859
        12    1        2.488502808819      14.523389325499    3322.965940597026
        13    1        2.488502808819      17.193261515720    3314.769384171193
        14    1        2.488502808819      19.863133705941    3306.572827745360
        15    1        2.488502808819      22.533005896163    3298.376271319526
        16    1        2.488502808819      25.202878086384    3290.179714893693
        17    1        2.488502808819       0.039300036489    3281.983158467860
        18    1        2.488502808819       2.709172226711    3273.786602042027
        19    1        2.488502808819       5.379044416932    3265.590045616193
        20    1        2.488502808819       8.048916607153    3257.393489190360
        21    1        2.488502808819      10.718788797374    3249.196932764527
        22    1        2.488502808819      13.388660987595    3241.000376338694
        23    1        2.488502808819      16.058533177813    3232.803819912861
        24    1        2.488502808819      18.728405368034    3224.607263487027
        25    1        2.488502808819      21.398277558255    3216.410707061194
        26    1        2.488502808819      24.068149748477    3208.214150635361
        27    1        2.488502808819      26.738021938698    3200.017594209528
        28    1        2.488502808819       1.574443888803    3191.821037783695
        29    1        2.488502808819       4.244316079024    3183.624481357862
        30    1        2.488502808819       6.914188269246    3175.427924932028
        31    1        2.488502808819       9.584060459467    3167.231368506195
        32    1        2.488502808819      12.253932649688    3159.034812080362
        33    1        2.488502808819      14.923804839906    3150.838255654529
        34    1        2.488502808819      17.593677030127    3142.641699228696
        35    1        2.488502808819      20.263549220348    3134.445142802863
        36    1        2.488502808819      22.933421410569    3126.248586377030
        37    1        2.488502808819      25.603293600790    3118.052029951196
        38    1        2.488502808819       0.439715550896    3109.855473525363
        39    1        2.488502808819       3.109587741117    3101.658917099530
        40    1        2.488502808819       5.779459931338    3093.462360673697
        41    1        2.488502808819       8.449332121560    3085.265804247864
        42    1        2.488502808819      11.119204311781    3077.069247822031
        43    1        2.488502808819      13.789076502002    3068.872691396197
        44    1        2.488502808819      16.458948692220    3060.676134970364
        45    1        2.488502808819      19.128820882441    3052.479578544531
        46    1        2.488502808819      21.798693072662    3044.283022118698
        47    1        2.488502808819      24.468565262883    3036.086465692865
        48    1        2.488502808819      27.138437453104    3027.889909267032
        49    1        2.488502808819       1.974859403210    3019.693352841198
        50    1        2.488502808819       4.644731593431    3011.496796415365
        51    1        2.488502808819       7.314603783652    3003.300239989532
        52    1        2.488502808819       9.984475973873    2995.103683563699
        53    1        2.488502808819      12.654348164095    2986.907127137866
        54    1        2.488502808819      15.324220354312    2978.710570712033
        55    1        2.488502808819      17.994092544533    2970.514014286199
        56    1        2.488502808819      20.663964734755    2962.317457860366
        57    1        2.488502808819      23.333836924976    2954.120901434533
        58    1        2.488502808819      26.003709115197    2945.924345008700
        59    1        2.488502808819       0.840131065303    2937.727788582867
        60    1        2.488502808819       3.510003255524    2929.531232157034
        61    1        2.488502808819       6.179875445745    2921.334675731200
        62    1        2.488502808819       8.849747635966    2913.138119305367
        63    1        2.488502808819      11.519619826187    2904.941562879534
        64    1        2.488502808819      14.189492016409    2896.745006453701
        65    1        2.488502808819      16.859364206626    2888.548450027868
        66    1        2.488502808819      19.529236396851    2880.351893602035
        67    1        2.488502808819      22.199108587072    2872.155337176201
        68    1        2.488502808819      24.868980777293    2863.958780750368
        69    1        2.488502808819      27.538852967515    2855.762224324535
        70    1        2.488502808819       2.375274917620    2847.565667898702
        71    1        2.488502808819       5.045147107841    2839.369111472869
        72    1        2.488502808819       7.715019298063    2831.172555047036
        73    1        2.488502808819      10.384891488284    2822.975998621203
        74    1        2.488502808819      13.054763678505    2814.779442195369
        75    1        2.488502808819      15.724635868723    2806.582885769536
        76    1        2.488502808819      18.394508058944    2798.386329343703
        77    1        2.488502808819      21.064380249165    2790.189772917870
        78    1        2.488502808819      23.734252439386    2781.993216492036
        79    1        2.488502808819      26.404124629607    2773.796660066203
        80    1        2.488502808819       1.240546579713    2765.600103640370
        81    1        2.488502808819       3.910418769934    2757.403547214537
        82    1        2.488502808819       6.580290960155    2749.206990788704
        83    1        2.488502808819       9.250163150376    2741.010434362870
        84    1        2.488502808819      11.920035340598    2732.813877937037
        85    1        2.488502808819      14.589907530819    2724.617321511204
        86    1        2.488502808819      17.259779721036    2716.420765085371
        87    1        2.488502808819      19.929651911258    2708.224208659538
        88    1        2.488502808819      22.599524101479    2700.027652233705
        89    1        2.488502808819      25.269396291700    2691.831095807871
        90    1        2.488502808819       0.105818241806    2683.634539382038
        91    1        2.488502808819       2.775690432027    2675.437982956205
        92    1        2.488502808819       5.445562622248    2667.241426530372
        93    1        2.488502808819       8.115434812469    2659.044870104539
        94    1        2.488502808819      10.785307002690    2650.848313678706
        95    1        2.488502808819      13.455179192912    2642.651757252872
        96    1        2.488502808819      16.125051383129    2634.455200827039
        97    1        2.488502808819      18.794923573350    2626.258644401206
        98    1        2.488502808819      21.464795763572    2618.062087975373
        99    1        2.488502808819      24.134667953793    2609.865531549540
       100    1        2.488502808819      26.804540144014    2601.668975123707
       101    1        2.488502808819       1.640962094119    2593.472418697873
       102    1        2.488502808819       4.310834284341    2585.275862272040
       103    1        2.488502808819       6.980706474562    2577.079305846207
       104    1        2.488502808819       9.650578664783    2568.882749420374
       105    1        2.488502808819      12.320450855004    2560.686192994541
       106    1        2.488502808819      14.990323045226    2552.489636568708
       107    1        2.488502808819      17.660195235443    2544.293080142875
       108    1        2.488502808819      20.330067425662    2536.096523717041
       109    1        2.488502808819      22.999939615884    2527.899967291208
       110    1        2.488502808819      25.669811806105    2519.703410865375
       111    1        2.488502808819       0.506233756210    2511.506854439542
       112    1        2.488502808819       3.176105946432    2503.310298013709
       113    1        2.488502808819       5.845978136653    2495.113741587876
       114    1        2.488502808819       8.515850326876    2486.917185162042
       115    1        2.488502808819      11.185722517095    2478.720628736209
       116    1        2.488502808819      13.855594707316    2470.524072310376
       117    1        2.488502808819      16.525466897538    2462.327515884543
       118    1        2.488502808819      19.195339087759    2454.130959458710
       119    1        2.488502808819      21.865211277980    2445.934403032877
       120    1        2.488502808819      24.535083468199    2437.737846607043
       121    1        2.488502808819      27.204955658421    2429.541290181210
       122    1        2.488502808819       2.041377608526    2421.344733755377
       123    1        2.488502808819       4.711249798747    2413.148177329544
       124    1        2.488502808819       7.381121988969    2404.951620903711
       125    1        2.488502808819      10.050994179188    2396.755064477878
       126    1        2.488502808819      12.720866369409    2388.558508052044
       127    1        2.488502808819      15.390738559630    2380.361951626211
       128    1        2.488502808819      18.060610749852    2372.165395200378
       129    1        2.488502808819      20.730482940073    2363.968838774545
       130    1        2.488502808819      23.400355130292    2355.772282348712
       131    1        2.488502808819      26.070227320513    2347.575725922879
       132    1        2.488502808819       0.906649270619    2339.379169497045
       133    1        2.488502808819       3.576521460840    2331.182613071212
       134    1        2.488502808819       6.246393651061    2322.986056645379
       135    1        2.488502808819       8.916265841282    2314.789500219546
       136    1        2.488502808819      11.586138031502    2306.592943793712
       137    1        2.488502808819      14.256010221723    2298.396387367879
       138    1        2.488502808819      16.925882411944    2290.199830942046
       139    1        2.488502808819      19.595754602165    2282.003274516213
       140    1        2.488502808819      22.265626792387    2273.806718090380
       141    1        2.488502808819      24.935498982606    2265.610161664546
       142    1        2.488502808819      27.605371172827    2257.413605238713
       143    1        2.488502808819       2.441793122933    2249.217048812880
       144    1        2.488502808819       5.111665313154    2241.020492387047
       145    1        2.488502808819       7.781537503377    2232.823935961214
       146    1        2.488502808819      10.451409693596    2224.627379535381
       147    1        2.488502808819      13.121281883818    2216.430823109548
       148    1        2.488502808819      15.791154074039    2208.234266683714
       149    1        2.488502808819      18.461026264260    2200.037710257881
       150    1        2.488502808819      21.130898454481    2191.841153832048
       151    1        2.488502808819      23.800770644702    2183.644597406215
       152    1        2.488502808819      26.470642834922    2175.448040980382
       153    1        2.488502808819       1.307064785027    2167.251484554549
       154    1        2.488502808819       3.976936975248    2159.054928128715
       155    1        2.488502808819       6.646809165470    2150.858371702882
       156    1        2.488502808819       9.316681355691    2142.661815277049
       157    1        2.488502808819      11.986553545910    2134.465258851216
       158    1        2.488502808819      14.656425736131    2126.268702425383
       159    1        2.488502808819      17.326297926353    2118.072145999550
       160    1        2.488502808819      19.996170116574    2109.875589573716
       161    1        2.488502808819      22.666042306795    2101.679033147883
       162    1        2.488502808819      25.335914497015    2093.482476722050
       163    1        2.488502808819       0.172336447120    2085.285920296217
       164    1        2.488502808819       2.842208637341    2077.089363870384
       165    1        2.488502808819       5.512080827562    2068.892807444551
       166    1        2.488502808819       8.181953017784    2060.696251018717
       167    1        2.488502808819      10.851825208005    2052.499694592884
       168    1        2.488502808819      13.521697398224    2044.303138167051
       169    1        2.488502808819      16.191569588445    2036.106581741218
       170    1        2.488502808819      18.861441778667    2027.910025315385
       171    1        2.488502808819      21.531313968888    2019.713468889552
       172    1        2.488502808819      24.201186159109    2011.516912463718
       173    1        2.488502808819      26.871058349328    2003.320356037885
       174    1        2.488502808819       1.707480299434    1995.123799612052
       175    1        2.488502808819       4.377352489655    1986.927243186219
       176    1        2.488502808819       7.047224679876    1978.730686760386
       177    1        2.488502808819       9.717096870098    1970.534130334553
       178    1        2.488502808819      12.386969060319    1962.337573908719
       179    1        2.488502808819      15.056841250540    1954.141017482886
       180    1        2.488502808819      17.726713440761    1945.944461057053
       181    1        2.488502808819      20.396585630982    1937.747904631220
       182    1        2.488502808819      23.066457821204    1929.551348205387
       183    1        2.488502808819      25.736330011423    1921.354791779554
       184    1        2.488502808819       0.572751961528    1913.158235353720
       185    1        2.488502808819       3.242624151750    1904.961678927887
       186    1        2.488502808819       5.912496341971    1896.765122502054
       187    1        2.488502808819       8.582368532192    1888.568566076221
       188    1        2.488502808819      11.252240722413    1880.372009650388
       189    1        2.488502808819      13.922112912633    1872.175453224555
       190    1        2.488502808819      16.591985102854    1863.978896798721
       191    1        2.488502808819      19.261857293075    1855.782340372888
       192    1        2.488502808819      21.931729483296    1847.585783947055
       193    1        2.488502808819      24.601601673518    1839.389227521222
       194    1        2.488502808819      27.271473863737    1831.192671095389
       195    1        2.488502808819       2.107895813842    1822.996114669555
       196    1        2.488502808819       4.777768004064    1814.799558243722
       197    1        2.488502808819       7.447640194285    1806.603001817889
       198    1        2.488502808819      10.117512384506    1798.406445392056
       199    1        2.488502808819      12.787384574725    1790.209888966223
       200    1        2.488502808819      15.457256764947    1782.013332540390
       201    1        2.488502808819      18.127128955168    1773.816776114556
       202    1        2.488502808819      20.797001145389    1765.620219688723
       203    1        2.488502808819      23.466873335610    1757.423663262890
       204    1        2.488502808819      26.136745525830    1749.227106837057
       205    1        2.488502808819       0.973167475935    1741.030550411224
       206    1        2.488502808819       3.643039666156    1732.833993985391
       207    1        2.488502808819       6.312911856377    1724.637437559557
       208    1        2.488502808819       8.982784046599    1716.440881133724
       209    1        2.488502808819      11.652656236822    1708.244324707891
       210    1        2.488502808819      14.322528427041    1700.047768282058
       211    1        2.488502808819      16.992400617262    1691.851211856225
       212    1        2.488502808819      19.662272807484    1683.654655430392
       213    1        2.488502808819      22.332144997705    1675.458099004558
       214    1        2.488502808819      25.002017187926    1667.261542578725
       215    1        2.488502808819      27.671889378145    1659.064986152892
       216    1        2.488502808819       2.508311328251    1650.868429727059
       217    1        2.488502808819       5.178183518472    1642.671873301226
       218    1        2.488502808819       7.848055708693    1634.475316875393
       219    1        2.488502808819      10.517927898914    1626.278760449559
       220    1        2.488502808819      13.187800089134    1618.082204023726
       221    1        2.488502808819      15.857672279355    1609.885647597893
       222    1        2.488502808819      18.527544469576    1601.689091172060
       223    1        2.488502808819      21.197416659797    1593.492534746227
       224    1        2.488502808819      23.867288850019    1585.295978320393
       225    1        2.488502808819      26.537161040238    1577.099421894560
       226    1        2.488502808819       1.373582990343    1568.902865468727
       227    1        2.488502808819       4.043455180565    1560.706309042894
       228    1        2.488502808819       6.713327370786    1552.509752617061
       229    1        2.488502808819       9.383199561007    1544.313196191228
       230    1        2.488502808819      12.053071751228    1536.116639765394
       231    1        2.488502808819      14.722943941448    1527.920083339561
       232    1        2.488502808819      17.392816131669    1519.723526913728
       233    1        2.488502808819      20.062688321890    1511.526970487895
       234    1        2.488502808819      22.732560512111    1503.330414062062
       235    1        2.488502808819      25.402432702333    1495.133857636229
       236    1        2.488502808819       0.238854652436    1486.937301210395
       237    1        2.488502808819       2.908726842657    1478.740744784562
       238    1        2.488502808819       5.578599032879    1470.544188358729
       239    1        2.488502808819       8.248471223100    1462.347631932896
       240    1        2.488502808819      10.918343413321    1454.151075507063
       241    1        2.488502808819      13.588215603540    1445.954519081230
       242    1        2.488502808819      16.258087793763    1437.757962655396
       243    1        2.488502808819      18.927959983985    1429.561406229563
       244    1        2.488502808819      21.597832174206    1421.364849803730
       245    1        2.488502808819      24.267704364427    1413.168293377897
       246    1        2.488502808819      26.937576554647    1404.971736952064
       247    1        2.488502808819       1.773998504752    1396.775180526231
       248    1        2.488502808819       4.443870694973    1388.578624100398
       249    1        2.488502808819       7.113742885194    1380.382067674564
       250    1        2.488502808819       9.783615075416    1372.185511248731
       251    1        2.488502808819      12.453487265637    1363.988954822898
       252    1        2.488502808819      15.123359455856    1355.792398397065
       253    1        2.488502808819      17.793231646077    1347.595841971231
       254    1        2.488502808819      20.463103836299    1339.399285545398
       255    1        2.488502808819      23.132976026520    1331.202729119565
       256    1        2.488502808819      25.802848216741    1323.006172693732
       257    1        2.488502808819       0.639270166845    1314.809616267899
       258    1        2.488502808819       3.309142357066    1306.613059842066
       259    1        2.488502808819       5.979014547287    1298.416503416232
       260    1        2.488502808819       8.648886737508    1290.219946990399
       261    1        2.488502808819      11.318758927730    1282.023390564566
       262    1        2.488502808819      13.988631117949    1273.826834138733
       263    1        2.488502808819      16.658503308171    1265.630277712900
       264    1        2.488502808819      19.328375498391    1257.433721287067
       265    1        2.488502808819      21.998247688613    1249.237164861234
       266    1        2.488502808819      24.668119878834    1241.040608435400
       267    1        2.488502808819      27.337992069055    1232.844052009567
       268    1        2.488502808819       2.174414019160    1224.647495583734
       269    1        2.488502808819       4.844286209381    1216.450939157901
       270    1        2.488502808819       7.514158399602    1208.254382732068
       271    1        2.488502808819      10.184030589823    1200.057826306235
       272    1        2.488502808819      12.853902780043    1191.861269880401
       273    1        2.488502808819      15.523774970265    1183.664713454568
       274    1        2.488502808819      18.193647160485    1175.468157028735
       275    1        2.488502808819      20.863519350706    1167.271600602902
       276    1        2.488502808819      23.533391540927    1159.075044177069
       277    1        2.488502808819      26.203263731148    1150.878487751236
       278    1        2.488502808819       1.039685681253    1142.681931325402
       279    1        2.488502808819       3.709557871474    1134.485374899569
       280    1        2.488502808819       6.379430061695    1126.288818473736
       281    1        2.488502808819       9.049302251917    1118.092262047903
       282    1        2.488502808819      11.719174442137    1109.895705622070
       283    1        2.488502808819      14.389046632358    1101.699149196236
       284    1        2.488502808819      17.058918822579    1093.502592770403
       285    1        2.488502808819      19.728791012800    1085.306036344570
       286    1        2.488502808819      22.398663203021    1077.109479918737
       287    1        2.488502808819      25.068535393241    1068.912923492904
       288    1        2.488502808819      27.738407583463    1060.716367067071
       289    1        2.488502808819       2.574829533568    1052.519810641237
       290    1        2.488502808819       5.244701723788    1044.323254215404
       291    1        2.488502808819       7.914573914009    1036.126697789571
       292    1        2.488502808819      10.584446104231    1027.930141363738
       293    1        2.488502808819      13.254318294451    1019.733584937905
       294    1        2.488502808819      15.924190484672    1011.537028512072
       295    1        2.488502808819      18.594062674892    1003.340472086238
       296    1        2.488502808819      21.263934865114     995.143915660405
       297    1        2.488502808819      23.933807055335     986.947359234572
       298    1        2.488502808819      26.603679245556     978.750802808739
       299    1        2.488502808819       1.440101195662     970.554246382906
       300    1        2.488502808819       4.109973385883     962.357689957073
       301    1        2.488502808819       6.779845576103     954.161133531239
       302    1        2.488502808819       9.449717766324     945.964577105406
       303    1        2.488502808819      12.119589956545     937.768020679573
       304    1        2.488502808819      14.789462146766     929.571464253740
       305    1        2.488502808819      17.459334336987     921.374907827907
       306    1        2.488502808819      20.129206527207     913.178351402074
       307    1        2.488502808819      22.799078717429     904.981794976240
       308    1        2.488502808819      25.468950907649     896.785238550407
       309    1        2.488502808819       0.305372857754     888.588682124574
       310    1        2.488502808819       2.975245047975     880.392125698741
       311    1        2.488502808819       5.645117238196     872.195569272908
       312    1        2.488502808819       8.314989428417     863.999012847074
       313    1        2.488502808819      10.984861618639     855.802456421241
       314    1        2.488502808819      13.654733808859     847.605899995408
       315    1        2.488502808819      16.324605999081     839.409343569575
       316    1        2.488502808819      18.994478189301     831.212787143742
       317    1        2.488502808819      21.664350379522     823.016230717909
       318    1        2.488502808819      24.334222569743     814.819674292075
       319    1        2.488502808819      27.004094759964     806.623117866242
       320    1        2.488502808819       1.840516710069     798.426561440409
       321    1        2.488502808819       4.510388900290     790.230005014576
       322    1        2.488502808819       7.180261090511     782.033448588743
       323    1        2.488502808819       9.850133280732     773.836892162910
       324    1        2.488502808819      12.520005470952     765.640335737076
       325    1        2.488502808819      15.189877661173     757.443779311243
       326    1        2.488502808819      17.859749851395     749.247222885410
       327    1        2.488502808819      20.529622041615     741.050666459577
       328    1        2.488502808819      23.199494231836     732.854110033744
       329    1        2.488502808819      25.869366422056     724.657553607911
       330    1        2.488502808819       0.705788372163     716.460997182077
       331    1        2.488502808819       3.375660562384     708.264440756244
       332    1        2.488502808819       6.045532752604     700.067884330411
       333    1        2.488502808819       8.715404942825     691.871327904578
       334    1        2.488502808819      11.385277133047     683.674771478745
       335    1        2.488502808819      14.055149323267     675.478215052912
       336    1        2.488502808819      16.725021513488     667.281658627078
       337    1        2.488502808819      19.394893703708     659.085102201245
       338    1        2.488502808819      22.064765893930     650.888545775412
       339    1        2.488502808819      24.734638084151     642.691989349579
       340    1        2.488502808819      27.404510274372     634.495432923746
       341    1        2.488502808819       2.240932224477     626.298876497913
       342    1        2.488502808819       4.910804414698     618.102320072079
       343    1        2.488502808819       7.580676604919     609.905763646246
       344    1        2.488502808819      10.250548795140     601.709207220413
       345    1        2.488502808819      12.920420985361     593.512650794580
       346    1        2.488502808819      15.590293175581     585.316094368747
       347    1        2.488502808819      18.260165365802     577.119537942914
       348    1        2.488502808819      20.930037556023     568.922981517080
       349    1        2.488502808819      23.599909746245     560.726425091247
       350    1        2.488502808819      26.269781936465     552.529868665414
       351    1        2.488502808819       1.106203886571     544.333312239581
       352    1        2.488502808819       3.776076076791     536.136755813748
       353    1        2.488502808819       6.445948267012     527.940199387915
       354    1        2.488502808819       9.115820457233     519.743642962081
       355    1        2.488502808819      11.785692647454     511.547086536248
       356    1        2.488502808819      14.455564837675     503.350530110415
       357    1        2.488502808819      17.125437027896     495.153973684582
       358    1        2.488502808819      19.795309218117     486.957417258749
       359    1        2.488502808819      22.465181408338     478.760860832915
       360    1        2.488502808819      25.135053598558     470.564304407082
       361    1        2.488502808819      27.804925788780     462.367747981249
       362    1        2.488502808819       2.641347738885     454.171191555416
       363    1        2.488502808819       5.311219929105     445.974635129583
       364    1        2.488502808819       7.981092119327     437.778078703750
       365    1        2.488502808819      10.650964309548     429.581522277916
       366    1        2.488502808819      13.320836499769     421.384965852083
       367    1        2.488502808819      15.990708689989     413.188409426250
       368    1        2.488502808819      18.660580880210     404.991853000417
       369    1        2.488502808819      21.330453070431     396.795296574584
       370    1        2.488502808819      24.000325260652     388.598740148751