
thermo          10
thermo_style    custom step time temp fnorm pe ke lx ly lz pxx pyy pzz pxy pxz pyz

timestep        0.001

min_style       fire
minimize        0.0 1.0e-8 2000 4000

CITE-CITE-CITE-CITE-CITE-CITE-CITE-CITE-CITE-CITE-CITE-CITE-CITE

Your simulation uses code contributions which should be cited:

- Type Label Framework: https://doi.org/10.1021/acs.jpcb.3c08419

@Article{Gissinger24,
 author = {Jacob R. Gissinger, Ilia Nikiforov, Yaser Afshar, Brendon Waters, Moon-ki Choi, Daniel S. Karls, Alexander Stukowski, Wonpil Im, Hendrik Heinz, Axel Kohlmeyer, and Ellad B. Tadmor},
 title = {Type Label Framework for Bonded Force Fields in LAMMPS},
 journal = {J. Phys. Chem. B},
 year =    2024,
 volume =  128,
 number =  13,
 pages =   {3282–-3297}
}

CITE-CITE-CITE-CITE-CITE-CITE-CITE-CITE-CITE-CITE-CITE-CITE-CITE

Switching to 'neigh_modify every 1 delay 0 check yes' setting during minimization
Neighbor list info ...
  update: every = 1 steps, delay = 0 steps, check = yes
  max neighbors/atom: 2000, page size: 100000
  master list distance cutoff = 7.4
  ghost atom cutoff = 7.4
  binsize = 3.7, bins = 3 2 57
  1 neighbor lists, perpetual/occasional/extra = 1 0 0
  (1) pair grace, perpetual
      attributes: full, newton on
      pair build: full/bin/atomonly
      stencil: full/bin/3d
      bin: standard
  Parameters for fire:
    dmax  delaystep dtgrow dtshrink alpha0 alphashrink tmax tmin   integrator   halfstepback   abcfire  
     0.1     20      1.1     0.5     0.25     0.99      10  0.02 eulerimplicit      yes          no     
[GRACE] Atoms padding: new num. of atoms = 329 (incl. 0.912% fake atoms)
[GRACE] Neighbours padding: extending new num. of neighbours = 21840 (incl. 0.989% fake neighbours)
Per MPI rank memory allocation (min/avg/max) = 4.507 | 4.507 | 4.507 Mbytes
   Step          Time           Temp          Fnorm          PotEng         KinEng           Lx             Ly             Lz            Pxx            Pyy            Pzz            Pxy            Pxz            Pyz      
         0   0              0              61.931581     -3241.336       0              4.9770056      4.3102133      209.43826      148774.75      148774.75      301847.8       8.8089443e-07  2.5805485e-10 -9.0861597e-11
        10   0.01           430.13028      52.431586     -3266.9945      18.069578      4.9770056      4.3102133      209.43826      133185.39      133185.39      294558.53      8.4057888e-07  2.2456713e-10  8.4750903e-10
        20   0.02           1254.9464      32.461004     -3313.601       52.719731      4.9770056      4.3102133      209.43826      102971.35      102971.35      282961.59      7.6654804e-07  1.2010601e-10  4.3893649e-10
        30   0.070738431    2162.357       5.4847079     -3353.349       90.83964       4.9770056      4.3102133      209.43826      81765.368      81765.368      258280.61      6.7380206e-07  2.8968326e-11  2.5742982e-12
        40   0.057062334    1.9970106      3.81809       -3354.7252      0.083893511    4.9770056      4.3102133      209.43826      85204.105      85204.105      184889.9       6.4341037e-07  1.0732863e-11 -1.816736e-10 
        50   0.071327918    8.7525582      2.721993      -3355.0041      0.36769101     4.9770056      4.3102133      209.43826      85632.999      85632.999      184153.28      6.4278351e-07 -1.6265405e-11  5.6777542e-13
        60   0.16679752     16.46456       1.0256821     -3355.3081      0.69166872     4.9770056      4.3102133      209.43826      86762.348      86762.348      182748.93      6.4031312e-07  8.8252963e-11 -1.4506419e-10
        70   0.50473478     10.228867      0.43748605    -3355.5324      0.42971005     4.9770056      4.3102133      209.43826      87164.217      87164.217      181591.14      6.339778e-07   4.2251451e-11 -2.8176133e-11
        80   0.8            4.9564267      0.15360672    -3355.6547      0.20821724     4.9770056      4.3102133      209.43826      86956.714      86956.714      181380.85      6.3395082e-07 -1.6015253e-11 -7.0064122e-11
        90   0.9            2.297283       0.090047048   -3355.6956      0.09650782     4.9770056      4.3102133      209.43826      86835.916      86835.916      181309.47      6.3392405e-07  6.7832482e-12  3.6705123e-11
       100   1              0.86914647     0.093799033   -3355.71        0.036512449    4.9770056      4.3102133      209.43826      86791.748      86791.748      181269.78      6.3377131e-07  1.1791046e-10 -9.5937063e-11
       110   0.55           0.0020678395   0.024508157   -3355.7116      8.6869e-05     4.9770056      4.3102133      209.43826      86776.611      86776.611      181252.71      6.3386824e-07 -4.4833587e-11  1.6456505e-11
       120   0.6            0.002354508    0.019910049   -3355.7118      9.8911814e-05  4.9770056      4.3102133      209.43826      86785.361      86785.361      181243.44      6.3377385e-07  4.7197124e-11  4.1295474e-11
       130   1.0468315      0.0061070755   0.017684391   -3355.7119      0.00025655547  4.9770056      4.3102133      209.43826      86785.208      86785.208      181242.89      6.3386317e-07  8.1652604e-13  8.1449216e-11
       140   1.4            0.015474899    0.013757959   -3355.7123      0.0006500935   4.9770056      4.3102133      209.43826      86781.961      86781.961      181245.15      6.3395217e-07 -1.2334747e-11  3.0535406e-11
       150   1.5            0.025070726    0.012171521   -3355.7128      0.0010532098   4.9770056      4.3102133      209.43826      86777.434      86777.434      181248.44      6.3373553e-07  6.1182284e-11  6.2967184e-11
       160   1.6            0.01375068     0.010005787   -3355.713       0.00057765985  4.9770056      4.3102133      209.43826      86774.207      86774.207      181250.57      6.3392082e-07 -8.4617646e-11 -1.2696991e-10
       170   1.7            0.0050908471   0.0029649528  -3355.7131      0.00021386418  4.9770056      4.3102133      209.43826      86772.345      86772.345      181252.08      6.3381503e-07  7.1095816e-11  1.3923537e-13
       180   1.8            0.0013069881   0.0020268808  -3355.7131      5.4905978e-05  4.9770056      4.3102133      209.43826      86770.877      86770.877      181253.06      6.337368e-07   2.2137145e-10 -1.2968429e-10
       190   0.95           4.0871068e-07  0.00055001428 -3355.7131      1.7169751e-08  4.9770056      4.3102133      209.43826      86770.791      86770.791      181253.44      6.3393412e-07 -5.170546e-11  -7.5663606e-11
       200   0.5            6.2493764e-09  0.00011095809 -3355.7131      2.6253347e-10  4.9770056      4.3102133      209.43826      86770.799      86770.799      181253.45      6.3384955e-07 -1.1798141e-11 -6.6082493e-11
       210   0.525          1.8543922e-08  8.6905823e-05 -3355.7131      7.7902175e-10  4.9770056      4.3102133      209.43826      86770.8        86770.8        181253.46      6.3384575e-07 -8.638778e-11   3.7537281e-11
       220   1.0717944      4.5837606e-08  8.3075342e-05 -3355.7131      1.9256171e-09  4.9770056      4.3102133      209.43826      86770.799      86770.799      181253.46      6.3378304e-07 -5.1547609e-11 -8.7841945e-12
       230   2.3            1.6569487e-07  7.4477641e-05 -3355.7131      6.9607663e-09  4.9770056      4.3102133      209.43826      86770.793      86770.793      181253.46      6.3373299e-07  9.0109541e-11  2.3131179e-11
       240   2.4            3.7736555e-07  5.751257e-05  -3355.7131      1.5852956e-08  4.9770056      4.3102133      209.43826      86770.783      86770.783      181253.47      6.338486e-07   3.4365014e-11 -4.9755505e-12
       250   2.5            5.9164104e-07  3.8379099e-05 -3355.7131      2.4854572e-08  4.9770056      4.3102133      209.43826      86770.767      86770.767      181253.49      6.3385842e-07 -1.295446e-10   7.8421034e-11
       260   2.6            2.8800783e-07  6.5605854e-05 -3355.7131      1.2099078e-08  4.9770056      4.3102133      209.43826      86770.751      86770.751      181253.5       6.3387394e-07  1.0721405e-10 -2.0142977e-10
       270   1.35           4.7998305e-10  2.2163869e-05 -3355.7131      2.016387e-11   4.9770056      4.3102133      209.43826      86770.75       86770.75       181253.5       6.3382105e-07 -4.5846518e-11 -2.9114319e-11
       280   1.4            9.3231227e-10  1.257116e-05  -3355.7131      3.9166016e-11  4.9770056      4.3102133      209.43826      86770.75       86770.75       181253.5       6.3382263e-07 -4.9092978e-11  3.597839e-12 
       290   2.8256398      2.7304268e-09  1.1506381e-05 -3355.7131      1.1470399e-10  4.9770056      4.3102133      209.43826      86770.75       86770.75       181253.5       6.3383593e-07 -7.0788863e-11 -2.3289453e-11
       300   3              6.9925493e-09  9.1958533e-06 -3355.7131      2.9375383e-10  4.9770056      4.3102133      209.43826      86770.748      86770.748      181253.51      6.3371209e-07 -7.3797771e-11 -1.7970401e-10
       310   3.1            1.174864e-08   6.4799407e-06 -3355.7131      4.9355507e-10  4.9770056      4.3102133      209.43826      86770.746      86770.746      181253.51      6.3375327e-07  1.4656618e-10 -5.294327e-11 
       320   3.2            6.6726567e-09  3.4643693e-06 -3355.7131      2.8031529e-10  4.9770056      4.3102133      209.43826      86770.744      86770.744      181253.51      6.3372793e-07 -5.4714767e-11 -1.2372717e-10
       330   1.65           7.2606635e-12  5.8888811e-06 -3355.7131      3.0501719e-13  4.9770056      4.3102133      209.43826      86770.743      86770.743      181253.51      6.3377639e-07  3.4919359e-11 -1.523268e-10 
       340   1.7            1.210043e-11   1.8604985e-06 -3355.7131      5.0833361e-13  4.9770056      4.3102133      209.43826      86770.743      86770.743      181253.51      6.3367978e-07  1.0673763e-10  2.454154e-11 
       350   2.1175         3.0156541e-11  1.6933595e-06 -3355.7131      1.2668626e-12  4.9770056      4.3102133      209.43826      86770.743      86770.743      181253.51      6.3379729e-07 -2.0587378e-11 -5.7308131e-11
       360   3.6            9.35464e-11    1.4541306e-06 -3355.7131      3.9298419e-12  4.9770056      4.3102133      209.43826      86770.742      86770.742      181253.51      6.3379444e-07 -2.502158e-11   6.2811292e-11
       370   3.7            1.8692604e-10  1.0779471e-06 -3355.7131      7.8526781e-12  4.9770056      4.3102133      209.43826      86770.742      86770.742      181253.51      6.3382865e-07 -7.0472156e-11  4.1174992e-12
       380   3.8            1.7520584e-10  8.4959943e-07 -3355.7131      7.3603178e-12  4.9770056      4.3102133      209.43826      86770.742      86770.742      181253.51      6.3372698e-07  1.4719974e-10 -2.2227908e-11
       390   3.9            7.1423406e-11  6.631307e-07  -3355.7131      3.0004649e-12  4.9770056      4.3102133      209.43826      86770.742      86770.742      181253.51      6.338657e-07  -2.3026191e-10 -6.7166312e-11
       400   4              2.3845631e-11  3.9387753e-07 -3355.7131      1.0017441e-12  4.9770056      4.3102133      209.43826      86770.741      86770.741      181253.51      6.3363544e-07  2.2210613e-10  1.4769465e-10
       410   2.05           8.052033e-16   2.0212327e-07 -3355.7131      3.3826226e-17  4.9770056      4.3102133      209.43826      86770.741      86770.741      181253.51      6.3403579e-07 -1.6818303e-10 -7.900406e-11 
       420   1.05           9.069426e-17   3.4715473e-08 -3355.7131      3.8100248e-18  4.9770056      4.3102133      209.43826      86770.741      86770.741      181253.51      6.3385747e-07 -2.3398346e-10  1.9322936e-11
       430   1.075          7.2515076e-16  2.4655127e-08 -3355.7131      3.0463255e-17  4.9770056      4.3102133      209.43826      86770.741      86770.741      181253.51      6.3377132e-07 -1.5432615e-10 -2.7315391e-11
       440   1.4641         1.9024906e-15  2.3738271e-08 -3355.7131      7.9922768e-17  4.9770056      4.3102133      209.43826      86770.741      86770.741      181253.51      6.3376055e-07 -6.706734e-11   1.5366299e-11
       450   3.8838051      6.9269437e-15  2.2713919e-08 -3355.7131      2.9099777e-16  4.9770056      4.3102133      209.43826      86770.741      86770.741      181253.51      6.3373204e-07  6.1841314e-11  1.2451404e-11
       460   4.6            2.134338e-14   1.8859581e-08 -3355.7131      8.9662574e-16  4.9770056      4.3102133      209.43826      86770.741      86770.741      181253.51      6.3369404e-07  3.8957652e-11  2.538285e-11 
       470   4.7            3.9474115e-14  1.3319116e-08 -3355.7131      1.6582897e-15  4.9770056      4.3102133      209.43826      86770.741      86770.741      181253.51      6.3376562e-07 -1.0610418e-11 -2.4784035e-11
       479   4.79           3.6169818e-14  8.0859236e-09 -3355.7131      1.5194777e-15  4.9770056      4.3102133      209.43826      86770.741      86770.741      181253.51      6.3364621e-07 -3.2385528e-11  2.7102589e-11
Loop time of 3.17703 on 2 procs for 479 steps with 326 atoms

103.8% CPU use with 1 MPI tasks x 2 OpenMP threads

Minimization stats:
  Stopping criterion = force tolerance
  Energy initial, next-to-last, final = 
     -3241.33596632651  -3355.71310529486  -3355.71310529486
  Force two-norm initial, final = 61.931581 8.0859236e-09
  Force max component initial, final = 4.629666 1.334293e-09
  Final line search alpha, max atom move = 0 0
  Iterations, force evaluations = 479 488

MPI task timing breakdown:
Section |  min time  |  avg time  |  max time  |%varavg| %total
---------------------------------------------------------------
Pair    | 3.1603     | 3.1603     | 3.1603     |   0.0 | 99.47
Neigh   | 0          | 0          | 0          |   0.0 |  0.00
Comm    | 0.011011   | 0.011011   | 0.011011   |   0.0 |  0.35
Output  | 0.00098907 | 0.00098907 | 0.00098907 |   0.0 |  0.03
Modify  | 0          | 0          | 0          |   0.0 |  0.00
Other   |            | 0.004691   |            |       |  0.15

Nlocal:            326 ave         326 max         326 min
Histogram: 1 0 0 0 0 0 0 0 0 0
Nghost:           6987 ave        6987 max        6987 min
Histogram: 1 0 0 0 0 0 0 0 0 0
Neighs:              0 ave           0 max           0 min
Histogram: 1 0 0 0 0 0 0 0 0 0
FullNghs:        39312 ave       39312 max       39312 min
Histogram: 1 0 0 0 0 0 0 0 0 0

Total # of neighbors = 39312
Ave neighs/atom = 120.58896
Neighbor list builds = 0
Dangerous builds = 0

#write_data      fire_${name}.data

fix             3 all box/relax z 0.0 vmax 0.001
min_style       cg
minimize        0.0 1.0e-8 1000 2000
Switching to 'neigh_modify every 1 delay 0 check yes' setting during minimization
WARNING: Energy due to 3 extra global DOFs will be included in minimizer energies
 (src/min.cpp:219)
Per MPI rank memory allocation (min/avg/max) = 5.633 | 5.633 | 5.633 Mbytes
   Step          Time           Temp          Fnorm          PotEng         KinEng           Lx             Ly             Lz            Pxx            Pyy            Pzz            Pxy            Pxz            Pyz      
       479   0.479          3.6169818e-14  8.0858597e-09 -3355.7131      1.5194777e-15  4.9770056      4.3102133      209.43826      86770.741      86770.741      181253.51      6.3367978e-07 -1.0452054e-11  4.5331823e-12
       480   0.48           3.6169818e-14  0.054800215   -3356.2157      1.5194777e-15  4.9770056      4.3102133      209.6477       85097.961      85097.961      177228.86      6.303032e-07   2.3098109e-11  1.9360488e-11
       490   0.49           3.6169818e-14  0.56620208    -3360.6418      1.5194777e-15  4.9770056      4.3102133      211.74208      68703.859      68703.859      139052.7       5.976504e-07   2.7803845e-11 -1.0489099e-10
       500   0.5            3.6169818e-14  1.0233716     -3364.0466      1.5194777e-15  4.9770056      4.3102133      213.83646      52881.838      52881.838      104317.8       5.6829335e-07  7.6235183e-11 -2.2062059e-10
       510   0.51           3.6169818e-14  1.4417648     -3366.5204      1.5194777e-15  4.9770056      4.3102133      215.93084      37596.38       37596.38       72568.967      5.4210029e-07 -2.3378339e-10 -1.7545275e-10
       520   0.52           3.6169818e-14  1.8327046     -3368.1407      1.5194777e-15  4.9770056      4.3102133      218.02523      22827.417      22827.417      43375.592      5.1885811e-07 -3.6993538e-10 -2.4241473e-10
       530   0.53           3.6169818e-14  2.2019926     -3368.974       1.5194777e-15  4.9770056      4.3102133      220.11961      8567.2339      8567.2339      16348.855      4.9829974e-07 -2.9044468e-10 -3.311188e-10 
       540   0.54           3.6169818e-14  0.85941755    -3369.4102      1.5194777e-15  4.9770056      4.3102133      221.81701     -4157.9638     -4157.9638     -1162.9325      4.9560352e-07  3.554998e-11  -1.2186429e-11
       550   0.55           3.6169818e-14  0.34809908    -3369.4339      1.5194777e-15  4.9770056      4.3102133      221.69928     -3499.1667     -3499.1667     -290.68248      4.961086e-07   6.2273553e-11  1.5830199e-10
       560   0.56           3.6169818e-14  0.1584442     -3369.4385      1.5194777e-15  4.9770056      4.3102133      221.66987     -3475.8547     -3475.8547      334.09614      4.9763346e-07 -2.3996267e-11  1.8164594e-10
       570   0.57           3.6169818e-14  0.083962672   -3369.4408      1.5194777e-15  4.9770056      4.3102133      221.6918      -3538.5684     -3538.5684      22.305726      4.9676717e-07 -3.2428224e-11 -3.4083297e-11
       580   0.58           3.6169818e-14  0.099635662   -3369.4417      1.5194777e-15  4.9770056      4.3102133      221.70595     -3728.8        -3728.8         32.280627      4.9702066e-07 -2.4358886e-10  6.2729836e-11
       590   0.59           3.6169818e-14  0.048713354   -3369.4425      1.5194777e-15  4.9770056      4.3102133      221.70319     -3624.9185     -3624.9185     -41.833685      4.9649835e-07  1.4633092e-10  1.392715e-10 
       600   0.6            3.6169818e-14  0.073174519   -3369.4432      1.5194777e-15  4.9770056      4.3102133      221.69693     -3598.2665     -3598.2665      88.340998      4.9574758e-07  1.5071108e-10 -6.2649168e-10
       610   0.61           3.6169818e-14  0.070784409   -3369.4435      1.5194777e-15  4.9770056      4.3102133      221.7101      -3721.2228     -3721.2228     -89.663999      4.9681724e-07  5.2733583e-12  7.9802563e-10
       620   0.62           3.6169818e-14  0.072916346   -3369.4436      1.5194777e-15  4.9770056      4.3102133      221.71447     -3748.3166     -3748.3166     -97.023944      4.9630896e-07 -5.5855364e-11 -7.1682609e-10
       630   0.63           3.6169818e-14  0.018393322   -3369.4438      1.5194777e-15  4.9770056      4.3102133      221.70479     -3671.3421     -3671.3421     -3.2623792      4.9648093e-07 -3.4876068e-12  1.9669912e-10
       640   0.64           3.6169818e-14  0.03086917    -3369.4439      1.5194777e-15  4.9770056      4.3102133      221.70659     -3697.0064     -3697.0064     -21.99648       4.9647875e-07 -2.1959587e-10 -1.0846742e-09
       650   0.65           3.6169818e-14  0.023828802   -3369.4439      1.5194777e-15  4.9770056      4.3102133      221.70733     -3705.8816     -3705.8816     -28.13167       4.9695233e-07  3.8110778e-11 -2.7286233e-10
       660   0.66           3.6169818e-14  0.017626486   -3369.444       1.5194777e-15  4.9770056      4.3102133      221.70503     -3672.7544     -3672.7544     -7.4993131      4.9679363e-07  7.9850203e-11 -2.9749343e-10
       670   0.67           3.6169818e-14  0.01328285    -3369.444       1.5194777e-15  4.9770056      4.3102133      221.70395     -3669.2792     -3669.2792     -1.3051354      4.9693039e-07 -2.7152942e-11 -2.834696e-10 
       680   0.68           3.6169818e-14  0.01823853    -3369.444       1.5194777e-15  4.9770056      4.3102133      221.70563     -3682.212      -3682.212      -10.448039      4.9549524e-07  1.7896121e-10  4.7184423e-10
       690   0.69           3.6169818e-14  0.019317633   -3369.444       1.5194777e-15  4.9770056      4.3102133      221.70562     -3688.4096     -3688.4096     -14.930804      4.9568444e-07  7.4950531e-11  9.1547923e-10
       700   0.7            3.6169818e-14  0.014742267   -3369.444       1.5194777e-15  4.9770056      4.3102133      221.70665     -3690.0788     -3690.0788     -19.036593      4.9703302e-07  1.4870355e-10 -3.7690142e-10
       710   0.71           3.6169818e-14  0.021591632   -3369.444       1.5194777e-15  4.9770056      4.3102133      221.70577     -3677.0061     -3677.0061     -17.736908      4.9539687e-07 -5.3413437e-10  1.4864805e-10
       720   0.72           3.6169818e-14  0.015928683   -3369.4441      1.5194777e-15  4.9770056      4.3102133      221.70533     -3678.2129     -3678.2129     -7.6414606      4.9646596e-07  9.053729e-10   8.3365742e-11
       730   0.73           3.6169818e-14  0.0084539764  -3369.4441      1.5194777e-15  4.9770056      4.3102133      221.70486     -3677.3291     -3677.3291     -4.158656       4.9572162e-07 -7.5906371e-10  1.7942934e-11
       740   0.74           3.6169818e-14  0.0076547372  -3369.4441      1.5194777e-15  4.9770056      4.3102133      221.70508     -3679.9829     -3679.9829     -3.9354214      4.9746195e-07  3.306209e-11   1.816732e-11 
       750   0.75           3.6169818e-14  0.0053546128  -3369.4441      1.5194777e-15  4.9770056      4.3102133      221.70501     -3678.9143     -3678.9143     -1.7512923      4.9567599e-07  3.5124742e-10 -1.8448765e-10
       760   0.76           3.6169818e-14  0.0050368114  -3369.4441      1.5194777e-15  4.9770056      4.3102133      221.7052      -3678.934      -3678.934      -2.266846       4.9603892e-07  9.9036615e-11  6.2084888e-11
       770   0.77           3.6169818e-14  0.0064312466  -3369.4441      1.5194777e-15  4.9770056      4.3102133      221.70529     -3679.3535     -3679.3535     -4.9104087      4.9639433e-07 -1.4025201e-12  2.87236e-10  
       780   0.78           3.6169818e-14  0.0042612246  -3369.4441      1.5194777e-15  4.9770056      4.3102133      221.70521     -3679.8979     -3679.8979     -2.970048       4.9631054e-07 -2.4719883e-10  5.046267e-11 
       790   0.79           3.6169818e-14  0.0020353601  -3369.4441      1.5194777e-15  4.9770056      4.3102133      221.70523     -3680.7458     -3680.7458     -1.5813468      4.9611258e-07 -1.2402016e-10 -1.837301e-11 
       800   0.8            3.6169818e-14  0.0029608961  -3369.4441      1.5194777e-15  4.9770056      4.3102133      221.70508     -3680.0312     -3680.0312     -2.3186374      4.9699185e-07  8.5890374e-11  1.0046724e-10
       810   0.81           3.6169818e-14  0.0024998414  -3369.4441      1.5194777e-15  4.9770056      4.3102133      221.7051      -3679.6901     -3679.6901     -1.8431543      4.9570279e-07  1.3875604e-11 -9.6820676e-11
       820   0.82           3.6169818e-14  0.001966252   -3369.4441      1.5194777e-15  4.9770056      4.3102133      221.70504     -3679.4815     -3679.4815     -1.1912742      4.9594083e-07  3.5034976e-10  3.1388421e-11
       830   0.83           3.6169818e-14  0.0013071961  -3369.4441      1.5194777e-15  4.9770056      4.3102133      221.70505     -3679.1945     -3679.1945     -0.73882063     4.9645589e-07 -1.2609599e-10 -4.746131e-11 
       840   0.84           3.6169818e-14  0.0011979069  -3369.4441      1.5194777e-15  4.9770056      4.3102133      221.70503     -3678.9711     -3678.9711     -0.61017081     4.9614216e-07 -4.6980719e-10 -2.3996202e-10
       850   0.85           3.6169818e-14  0.0015035481  -3369.4441      1.5194777e-15  4.9770056      4.3102133      221.70505     -3679.336      -3679.336      -0.81925026     4.9622636e-07  8.3403248e-10  4.5997078e-10
       860   0.86           3.6169818e-14  0.0015193945  -3369.4441      1.5194777e-15  4.9770056      4.3102133      221.70504     -3679.6286     -3679.6286     -0.89118942     4.9556291e-07  9.2714124e-10  7.5623937e-11
       870   0.87           3.6169818e-14  0.0014482949  -3369.4441      1.5194777e-15  4.9770056      4.3102133      221.70507     -3679.7945     -3679.7945     -0.83918146     4.957792e-07  -2.1679233e-10  4.2468332e-11
       880   0.88           3.6169818e-14  0.0014865299  -3369.4441      1.5194777e-15  4.9770056      4.3102133      221.70507     -3679.3234     -3679.3234     -0.91712629     4.9691929e-07 -9.7884739e-10 -2.3842853e-12
       890   0.89           3.6169818e-14  0.0015640097  -3369.4441      1.5194777e-15  4.9770056      4.3102133      221.70503     -3679.0097     -3679.0097     -0.92169268     4.964654e-07  -3.2691832e-10 -1.4342181e-10
       900   0.9            3.6169818e-14  0.0018014382  -3369.4441      1.5194777e-15  4.9770056      4.3102133      221.70509     -3679.3653     -3679.3653     -1.1884112      4.9353176e-07  2.3691381e-09 -3.1224787e-10
       910   0.91           3.6169818e-14  0.0013824893  -3369.4441      1.5194777e-15  4.9770056      4.3102133      221.70506     -3679.2087     -3679.2087     -1.0141505      4.9636915e-07  1.4999307e-09 -2.3730654e-11
       920   0.92           3.6169818e-14  0.0011253449  -3369.4441      1.5194777e-15  4.9770056      4.3102133      221.70498     -3678.6369     -3678.6369     -0.79496265     4.9641611e-07 -8.3582799e-10  2.8592738e-11
       930   0.93           3.6169818e-14  0.0011032244  -3369.4441      1.5194777e-15  4.9770056      4.3102133      221.70498     -3678.6663     -3678.6663     -0.75056674     4.9586699e-07 -6.9060156e-10 -7.274411e-12 
       940   0.94           3.6169818e-14  0.00074827594 -3369.4441      1.5194777e-15  4.9770056      4.3102133      221.70496     -3678.6564     -3678.6564     -0.4641062      4.9625588e-07  1.0868607e-10 -5.3295819e-11
       950   0.95           3.6169818e-14  0.00058045829 -3369.4441      1.5194777e-15  4.9770056      4.3102133      221.70495     -3678.4722     -3678.4722     -0.31770293     4.9619315e-07  1.6194449e-11 -4.7816637e-11
       960   0.96           3.6169818e-14  0.00051397999 -3369.4441      1.5194777e-15  4.9770056      4.3102133      221.70494     -3678.3266     -3678.3266     -0.25792148     4.9556058e-07  2.0940584e-10 -6.0869439e-12
       970   0.97           3.6169818e-14  0.00043051249 -3369.4441      1.5194777e-15  4.9770056      4.3102133      221.70495     -3678.3475     -3678.3475     -0.18014368     4.9608037e-07  2.1217348e-10  6.1589402e-11
       980   0.98           3.6169818e-14  0.0002667485  -3369.4441      1.5194777e-15  4.9770056      4.3102133      221.70494     -3678.4554     -3678.4554     -0.10151164     4.9647742e-07 -7.0874096e-11  6.0757239e-11
       990   0.99           3.6169818e-14  0.00024739509 -3369.4441      1.5194777e-15  4.9770056      4.3102133      221.70494     -3678.4986     -3678.4986     -0.080717614    4.9584706e-07 -1.4423533e-10 -9.9803442e-11
      1000   1              3.6169818e-14  0.0002562324  -3369.4441      1.5194777e-15  4.9770056      4.3102133      221.70494     -3678.4454     -3678.4454     -0.069687529    4.9610764e-07 -1.8380514e-10  1.0436631e-10
      1010   1.01           3.6169818e-14  0.00025003239 -3369.4441      1.5194777e-15  4.9770056      4.3102133      221.70493     -3678.3163     -3678.3163     -0.062696404    4.9666651e-07  1.0187918e-10  3.7279964e-10
      1020   1.02           3.6169818e-14  0.00029275658 -3369.4441      1.5194777e-15  4.9770056      4.3102133      221.70493     -3678.2915     -3678.2915     -0.06943519     4.9592014e-07  4.9466008e-10 -1.2028027e-10
      1030   1.03           3.6169818e-14  0.0002525181  -3369.4441      1.5194777e-15  4.9770056      4.3102133      221.70493     -3678.3004     -3678.3004     -0.058861342    4.9536694e-07  3.8866683e-10 -4.7523047e-10
      1040   1.04           3.6169818e-14  0.00024019288 -3369.4441      1.5194777e-15  4.9770056      4.3102133      221.70493     -3678.3051     -3678.3051     -0.055176132    4.9571746e-07 -1.7952279e-10 -4.1725957e-10
      1050   1.05           3.6169818e-14  0.00032929781 -3369.4441      1.5194777e-15  4.9770056      4.3102133      221.70493     -3678.3038     -3678.3038     -0.073268413    4.9638238e-07 -4.2924647e-10  2.7726921e-10
      1060   1.06           3.6169818e-14  0.0003695757  -3369.4441      1.5194777e-15  4.9770056      4.3102133      221.70493     -3678.3003     -3678.3003     -0.086703457    4.9700297e-07 -5.2951743e-10  1.1012975e-09
      1070   1.07           3.6169818e-14  0.00031725429 -3369.4441      1.5194777e-15  4.9770056      4.3102133      221.70493     -3678.3275     -3678.3275     -0.079169954    4.9663214e-07 -4.1299591e-10  1.3120404e-09
      1080   1.08           3.6169818e-14  0.00031977878 -3369.4441      1.5194777e-15  4.9770056      4.3102133      221.70494     -3678.4007     -3678.4007     -0.084692786    4.9586619e-07 -2.1219219e-10  5.8130785e-10
      1090   1.09           3.6169818e-14  0.00029124852 -3369.4441      1.5194777e-15  4.9770056      4.3102133      221.70494     -3678.4393     -3678.4393     -0.080804093    4.9545744e-07  2.6367408e-10  3.7092024e-11
      1100   1.1            3.6169818e-14  0.00036297073 -3369.4441      1.5194777e-15  4.9770056      4.3102133      221.70494     -3678.4639     -3678.4639     -0.10696262     4.958142e-07   5.6781558e-10 -7.0297192e-10
      1110   1.11           3.6169818e-14  0.00029186084 -3369.4441      1.5194777e-15  4.9770056      4.3102133      221.70494     -3678.4513     -3678.4513     -0.092012282    4.9592475e-07  7.0148525e-10 -1.1265428e-09
      1120   1.12           3.6169818e-14  0.00037847546 -3369.4441      1.5194777e-15  4.9770056      4.3102133      221.70495     -3678.4683     -3678.4683     -0.12894449     4.9611873e-07  5.6532843e-10 -9.1942774e-10
      1130   1.13           3.6169818e-14  0.00037462007 -3369.4441      1.5194777e-15  4.9770056      4.3102133      221.70495     -3678.4707     -3678.4707     -0.13875158     4.957786e-07  -5.0378577e-11 -2.3300559e-10
      1140   1.14           3.6169818e-14  0.0004174681  -3369.4441      1.5194777e-15  4.9770056      4.3102133      221.70495     -3678.4727     -3678.4727     -0.17224267     4.9557271e-07 -5.5365943e-10  3.9471633e-10
      1150   1.15           3.6169818e-14  0.00039486835 -3369.4441      1.5194777e-15  4.9770056      4.3102133      221.70495     -3678.4481     -3678.4481     -0.18152513     4.9586579e-07 -1.1318537e-09  1.1069542e-09
      1160   1.16           3.6169818e-14  0.00026677247 -3369.4441      1.5194777e-15  4.9770056      4.3102133      221.70495     -3678.4302     -3678.4302     -0.13695563     4.9634138e-07 -1.2524892e-09  9.1364001e-10
      1170   1.17           3.6169818e-14  0.00022135052 -3369.4441      1.5194777e-15  4.9770056      4.3102133      221.70495     -3678.4749     -3678.4749     -0.12565748     4.963201e-07  -5.7705351e-10  3.7496884e-10
      1180   1.18           3.6169818e-14  0.00015228311 -3369.4441      1.5194777e-15  4.9770056      4.3102133      221.70495     -3678.5127     -3678.5127     -0.094619864    4.9587567e-07  2.1097666e-10 -1.2995766e-10
      1190   1.19           3.6169818e-14  0.00013381109 -3369.4441      1.5194777e-15  4.9770056      4.3102133      221.70495     -3678.5446     -3678.5446     -0.088927609    4.9580849e-07  3.7290245e-10 -5.0394472e-10
      1200   1.2            3.6169818e-14  0.00018780108 -3369.4441      1.5194777e-15  4.9770056      4.3102133      221.70496     -3678.5711     -3678.5711     -0.13133234     4.9540489e-07  4.6877882e-10 -3.9319226e-10
      1210   1.21           3.6169818e-14  0.00016391553 -3369.4441      1.5194777e-15  4.9770056      4.3102133      221.70495     -3678.5355     -3678.5355     -0.12153393     4.958757e-07  -1.2890109e-10  1.5518434e-10
      1220   1.22           3.6169818e-14  0.00015317385 -3369.4441      1.5194777e-15  4.9770056      4.3102133      221.70495     -3678.5141     -3678.5141     -0.11572972     4.9620981e-07 -3.0167306e-10  3.9061163e-10
      1230   1.23           3.6169818e-14  8.9787137e-05 -3369.4441      1.5194777e-15  4.9770056      4.3102133      221.70494     -3678.4823     -3678.4823     -0.067230413    4.9633211e-07 -3.2648835e-10  5.3643649e-10
      1240   1.24           3.6169818e-14  0.00011181245 -3369.4441      1.5194777e-15  4.9770056      4.3102133      221.70495     -3678.4919     -3678.4919     -0.078226914    4.9569933e-07  2.7152819e-11  1.2785387e-10
      1250   1.25           3.6169818e-14  6.5237554e-05 -3369.4441      1.5194777e-15  4.9770056      4.3102133      221.70494     -3678.4726     -3678.4726     -0.041996854    4.9520478e-07  3.6987302e-10 -1.9989674e-10
      1260   1.26           3.6169818e-14  9.7981041e-05 -3369.4441      1.5194777e-15  4.9770056      4.3102133      221.70494     -3678.463      -3678.463      -0.055522063    4.9610214e-07  1.5586691e-10 -2.2503928e-10
      1270   1.27           3.6169818e-14  9.0765588e-05 -3369.4441      1.5194777e-15  4.9770056      4.3102133      221.70494     -3678.4402     -3678.4402     -0.044531264    4.9672408e-07 -7.9868936e-11 -2.8531031e-10
      1280   1.28           3.6169818e-14  0.00010991235 -3369.4441      1.5194777e-15  4.9770056      4.3102133      221.70494     -3678.4495     -3678.4495     -0.047770946    4.95882e-07   -6.7575365e-10 -1.359698e-10 
      1290   1.29           3.6169818e-14  0.00013608738 -3369.4441      1.5194777e-15  4.9770056      4.3102133      221.70494     -3678.4736     -3678.4736     -0.051159361    4.9469285e-07 -2.4753573e-10 -7.0126064e-13
      1300   1.3            3.6169818e-14  0.00010877832 -3369.4441      1.5194777e-15  4.9770056      4.3102133      221.70494     -3678.4787     -3678.4787     -0.036120963    4.9534358e-07  5.8438404e-10  5.8294412e-10
      1310   1.31           3.6169818e-14  0.00014892237 -3369.4441      1.5194777e-15  4.9770056      4.3102133      221.70494     -3678.4701     -3678.4701     -0.044771892    4.9709733e-07  3.1377215e-10  9.6954454e-10
      1320   1.32           3.6169818e-14  0.00013165004 -3369.4441      1.5194777e-15  4.9770056      4.3102133      221.70494     -3678.4462     -3678.4462     -0.035219094    4.9707508e-07 -4.0794681e-10  3.2153278e-10
      1330   1.33           3.6169818e-14  0.00011600233 -3369.4441      1.5194777e-15  4.9770056      4.3102133      221.70494     -3678.4332     -3678.4332     -0.0288315      4.9509988e-07 -7.2682415e-10 -1.1623632e-09
      1340   1.34           3.6169818e-14  0.00012799543 -3369.4441      1.5194777e-15  4.9770056      4.3102133      221.70494     -3678.4381     -3678.4381     -0.029156641    4.944159e-07  -4.0523527e-11 -1.4032136e-09
      1350   1.35           3.6169818e-14  0.00013461377 -3369.4441      1.5194777e-15  4.9770056      4.3102133      221.70494     -3678.4545     -3678.4545     -0.029426399    4.9606833e-07  8.4495386e-10 -1.0592779e-10
      1360   1.36           3.6169818e-14  0.00016690147 -3369.4441      1.5194777e-15  4.9770056      4.3102133      221.70494     -3678.4688     -3678.4688     -0.035479927    4.974446e-07   7.7108772e-10  1.4927693e-09
      1370   1.37           3.6169818e-14  0.00013828477 -3369.4441      1.5194777e-15  4.9770056      4.3102133      221.70494     -3678.4651     -3678.4651     -0.029671176    4.9720307e-07  7.2314018e-11  2.3309443e-09
      1380   1.38           3.6169818e-14  0.00014169511 -3369.4441      1.5194777e-15  4.9770056      4.3102133      221.70494     -3678.4493     -3678.4493     -0.030895432    4.9554723e-07 -3.4500164e-10  1.3972108e-09
      1390   1.39           3.6169818e-14  0.00011270801 -3369.4441      1.5194777e-15  4.9770056      4.3102133      221.70494     -3678.4191     -3678.4191     -0.025197351    4.9440701e-07 -5.2493583e-10 -3.0405736e-10
      1400   1.4            3.6169818e-14  8.8779275e-05 -3369.4441      1.5194777e-15  4.9770056      4.3102133      221.70494     -3678.3971     -3678.3971     -0.020278283    4.9487198e-07 -6.3038677e-10 -6.6741334e-10
      1410   1.41           3.6169818e-14  6.2136636e-05 -3369.4441      1.5194777e-15  4.9770056      4.3102133      221.70493     -3678.3847     -3678.3847     -0.014561934    4.956933e-07  -2.7466986e-10 -5.3816629e-10
      1420   1.42           3.6169818e-14  6.0858856e-05 -3369.4441      1.5194777e-15  4.9770056      4.3102133      221.70493     -3678.385      -3678.385      -0.014797855    4.9621589e-07 -2.2726462e-10 -1.8421656e-10
      1430   1.43           3.6169818e-14  4.6127518e-05 -3369.4441      1.5194777e-15  4.9770056      4.3102133      221.70494     -3678.3884     -3678.3884     -0.011586823    4.9598356e-07  1.5040643e-10  1.5222971e-10
      1440   1.44           3.6169818e-14  5.5817902e-05 -3369.4441      1.5194777e-15  4.9770056      4.3102133      221.70494     -3678.3966     -3678.3966     -0.014718544    4.9545872e-07  2.8946178e-10  1.9635304e-10
      1450   1.45           3.6169818e-14  5.9217e-05    -3369.4441      1.5194777e-15  4.9770056      4.3102133      221.70494     -3678.4064     -3678.4064     -0.016308098    4.9462909e-07  5.6115829e-10  7.6325232e-11
      1460   1.46           3.6169818e-14  5.7048169e-05 -3369.4441      1.5194777e-15  4.9770056      4.3102133      221.70494     -3678.4091     -3678.4091     -0.016823712    4.9475356e-07  6.9200422e-10  2.1906454e-10
      1470   1.47           3.6169818e-14  2.7116783e-05 -3369.4441      1.5194777e-15  4.9770056      4.3102133      221.70494     -3678.4038     -3678.4038      0.0019022196   4.9554616e-07  1.8999494e-10 -4.5106969e-10
      1479   1.479          3.6169818e-14  2.4009748e-05 -3369.4441      1.5194777e-15  4.9770056      4.3102133      221.70494     -3678.3979     -3678.3979     -0.0002847568   4.9601961e-07 -1.2852335e-09  9.2070877e-10
Loop time of 12.8784 on 2 procs for 1000 steps with 326 atoms

102.8% CPU use with 1 MPI tasks x 2 OpenMP threads

Minimization stats:
  Stopping criterion = max iterations
  Energy initial, next-to-last, final = 
     -3355.71310529486  -3369.44410137753  -3369.44410137756
  Force two-norm initial, final = 508.27528 2.4023023e-05
  Force max component initial, final = 508.27528 3.4870627e-06
  Final line search alpha, max atom move = 1 3.4870627e-06
  Iterations, force evaluations = 1000 1943

MPI task timing breakdown:
Section |  min time  |  avg time  |  max time  |%varavg| %total
---------------------------------------------------------------
Pair    | 12.697     | 12.697     | 12.697     |   0.0 | 98.59
Neigh   | 0.012072   | 0.012072   | 0.012072   |   0.0 |  0.09
Comm    | 0.043893   | 0.043893   | 0.043893   |   0.0 |  0.34
Output  | 0.0019607  | 0.0019607  | 0.0019607  |   0.0 |  0.02
Modify  | 0          | 0          | 0          |   0.0 |  0.00
Other   |            | 0.1237     |            |       |  0.96

Nlocal:            326 ave         326 max         326 min
Histogram: 1 0 0 0 0 0 0 0 0 0
Nghost:           6987 ave        6987 max        6987 min
Histogram: 1 0 0 0 0 0 0 0 0 0
Neighs:              0 ave           0 max           0 min
Histogram: 1 0 0 0 0 0 0 0 0 0
FullNghs:        36864 ave       36864 max       36864 min
Histogram: 1 0 0 0 0 0 0 0 0 0

Total # of neighbors = 36864
Ave neighs/atom = 113.07975
Neighbor list builds = 15
Dangerous builds = 0
unfix           3
min_style       fire
minimize        0.0 1.0e-8 2000 4000
Switching to 'neigh_modify every 1 delay 0 check yes' setting during minimization
  Parameters for fire:
    dmax  delaystep dtgrow dtshrink alpha0 alphashrink tmax tmin   integrator   halfstepback   abcfire  
     0.1     20      1.1     0.5     0.25     0.99      10  0.02 eulerimplicit      yes          no     
Per MPI rank memory allocation (min/avg/max) = 4.509 | 4.509 | 4.509 Mbytes
   Step          Time           Temp          Fnorm          PotEng         KinEng           Lx             Ly             Lz            Pxx            Pyy            Pzz            Pxy            Pxz            Pyz      
      1479   1.479          0              2.4009748e-05 -3369.4441      0              4.9770056      4.3102133      221.70494     -3678.3979     -3678.3979     -0.00028475717  4.9602324e-07 -1.313658e-09   9.8818876e-10
      1480   1.48           6.0540919e-13  2.3978715e-05 -3369.4441      2.5432966e-14  4.9770056      4.3102133      221.70494     -3678.3979     -3678.3979     -0.00028493778  4.959637e-07  -1.2844855e-09  9.3668816e-10
      1490   1.49           5.4459642e-11  2.2390176e-05 -3369.4441      2.2878249e-12  4.9770056      4.3102133      221.70494     -3678.3981     -3678.3981     -0.0002385813   4.9594874e-07 -1.2391559e-09  8.934624e-10 
      1500   1.5            1.8073801e-10  1.9120128e-05 -3369.4441      7.592722e-12   4.9770056      4.3102133      221.70494     -3678.3985     -3678.3985     -2.5951236e-05  4.9596998e-07 -1.1888894e-09  8.1866118e-10
      1510   3.9165511      4.3945268e-10  1.328391e-05  -3369.4441      1.8461208e-11  4.9770056      4.3102133      221.70494     -3678.3999     -3678.3999      0.00098785806  4.9592331e-07 -8.564729e-10   4.6053199e-10
      1520   10.2258        9.2499267e-10  7.4440948e-06 -3369.4441      3.8858523e-11  4.9770056      4.3102133      221.70494     -3678.4033     -3678.4033      0.0051738281   4.9555828e-07  2.7721283e-10 -1.4062615e-10
      1530   15.3           1.3385e-09     3.3470845e-06 -3369.4441      5.6229777e-11  4.9770056      4.3102133      221.70494     -3678.4026     -3678.4026      0.0035020744   4.9554571e-07  1.6142083e-10 -7.5249986e-11
      1540   15.4           1.6337474e-09  2.4146589e-06 -3369.4441      6.863299e-11   4.9770056      4.3102133      221.70494     -3678.4035     -3678.4035      0.0056200919   4.9559508e-07 -3.0967636e-11 -1.1208019e-10
      1550   15.5           2.1164427e-09  1.5501567e-06 -3369.4441      8.89108e-11    4.9770056      4.3102133      221.70494     -3678.404      -3678.404       0.0070370618   4.9568514e-07 -1.3703564e-10  1.1921402e-11
      1560   15.6           1.2565642e-09  8.5283171e-07 -3369.4441      5.2787693e-11  4.9770056      4.3102133      221.70494     -3678.4048     -3678.4048      0.0088694663   4.9554332e-07  4.966794e-11  -3.7960398e-12
      1570   15.7           3.5892657e-10  4.7914083e-07 -3369.4441      1.5078342e-11  4.9770056      4.3102133      221.70494     -3678.4052     -3678.4052      0.0098532102   4.9550203e-07  5.22112e-11   -9.9691247e-11
      1580   7.9            3.6272222e-14  1.7242961e-07 -3369.4441      1.5237796e-15  4.9770056      4.3102133      221.70494     -3678.4053     -3678.4053      0.010169864    4.954003e-07  -3.3361317e-11  3.0481472e-11
      1590   3.975          9.5295407e-16  6.515935e-08  -3369.4441      4.0033169e-17  4.9770056      4.3102133      221.70494     -3678.4052     -3678.4052      0.010169145    4.954757e-07  -3.8747e-11    -3.6830221e-11
      1600   4              4.3609052e-15  5.3847016e-08 -3369.4441      1.8319965e-16  4.9770056      4.3102133      221.70494     -3678.4053     -3678.4053      0.010166473    4.955137e-07  -1.159418e-10  -4.0271074e-11
      1610   7.130533       1.1731226e-14  5.0748003e-08 -3369.4441      4.928235e-16   4.9770056      4.3102133      221.70494     -3678.4053     -3678.4053      0.010165872    4.9554152e-07 -1.0621765e-11 -1.2641396e-11
      1620   16.2           4.5241968e-14  4.4883797e-08 -3369.4441      1.9005946e-15  4.9770056      4.3102133      221.70494     -3678.4053     -3678.4053      0.010166496    4.9548138e-07  2.8274838e-11  2.3347312e-11
      1630   16.3           1.1326802e-13  3.7906545e-08 -3369.4441      4.7583384e-15  4.9770056      4.3102133      221.70494     -3678.4053     -3678.4053      0.010178296    4.956247e-07  -1.1070572e-11  2.9172453e-12
      1640   16.4           1.9953933e-13  2.99029e-08   -3369.4441      8.382557e-15   4.9770056      4.3102133      221.70494     -3678.4053     -3678.4053      0.010195447    4.9553434e-07  7.0163487e-11  5.5539857e-12
      1650   16.5           2.835765e-13   2.0032828e-08 -3369.4441      1.191292e-14   4.9770056      4.3102133      221.70494     -3678.4053     -3678.4053      0.010213915    4.9541645e-07  2.7676429e-11 -2.2141143e-10
      1660   16.6           2.3016053e-13  3.6829801e-08 -3369.4441      9.6689398e-15  4.9770056      4.3102133      221.70494     -3678.4053     -3678.4053      0.010237423    4.9550951e-07  7.5848375e-11 -1.9415576e-10
      1661   16.61          1.8621592e-13  8.882021e-09  -3369.4441      7.8228466e-15  4.9770056      4.3102133      221.70494     -3678.4053     -3678.4053      0.010237501    4.9538713e-07  1.5558641e-11 -3.517805e-10 
Loop time of 1.21809 on 2 procs for 182 steps with 326 atoms

102.9% CPU use with 1 MPI tasks x 2 OpenMP threads

Minimization stats:
  Stopping criterion = force tolerance
  Energy initial, next-to-last, final = 
     -3369.44410137756  -3369.44410137771  -3369.44410137771
  Force two-norm initial, final = 2.4009748e-05 8.882021e-09
  Force max component initial, final = 3.4870627e-06 1.0329108e-09
  Final line search alpha, max atom move = 0 0
  Iterations, force evaluations = 182 185

MPI task timing breakdown:
Section |  min time  |  avg time  |  max time  |%varavg| %total
---------------------------------------------------------------
Pair    | 1.2118     | 1.2118     | 1.2118     |   0.0 | 99.48
Neigh   | 0          | 0          | 0          |   0.0 |  0.00
Comm    | 0.0044257  | 0.0044257  | 0.0044257  |   0.0 |  0.36
Output  | 0.00029536 | 0.00029536 | 0.00029536 |   0.0 |  0.02
Modify  | 0          | 0          | 0          |   0.0 |  0.00
Other   |            | 0.001571   |            |       |  0.13

Nlocal:            326 ave         326 max         326 min
Histogram: 1 0 0 0 0 0 0 0 0 0
Nghost:           6987 ave        6987 max        6987 min
Histogram: 1 0 0 0 0 0 0 0 0 0
Neighs:              0 ave           0 max           0 min
Histogram: 1 0 0 0 0 0 0 0 0 0
FullNghs:        36888 ave       36888 max       36888 min
Histogram: 1 0 0 0 0 0 0 0 0 0

Total # of neighbors = 36888
Ave neighs/atom = 113.15337
Neighbor list builds = 0
Dangerous builds = 0

fix             3 all box/relax z 0.0 vmax 0.001
min_style       cg
minimize        0.0 1.0e-8 1000 2000
Switching to 'neigh_modify every 1 delay 0 check yes' setting during minimization
WARNING: Energy due to 3 extra global DOFs will be included in minimizer energies
 (src/min.cpp:219)
Per MPI rank memory allocation (min/avg/max) = 5.634 | 5.634 | 5.634 Mbytes
   Step          Time           Temp          Fnorm          PotEng         KinEng           Lx             Ly             Lz            Pxx            Pyy            Pzz            Pxy            Pxz            Pyz      
      1661   1.661          1.8621592e-13  8.8820959e-09 -3369.4441      7.8228466e-15  4.9770056      4.3102133      221.70494     -3678.4053     -3678.4053      0.010237501    4.954359e-07   4.1888649e-11 -3.0204708e-10
      1670   1.67           1.8621592e-13  2.0033951e-08 -3369.4441      7.8228466e-15  4.9770056      4.3102133      221.70494     -3678.4109     -3678.4109      9.7440462e-05  4.9545445e-07  3.9644616e-12  1.7667099e-11
      1680   1.68           1.8621592e-13  2.6447669e-08 -3369.4441      7.8228466e-15  4.9770056      4.3102133      221.70494     -3678.4109     -3678.4109     -8.9484281e-09  4.9544817e-07  8.3552895e-11  4.2070042e-10
      1690   1.69           1.8621592e-13  1.0209581e-08 -3369.4441      7.8228466e-15  4.9770056      4.3102133      221.70494     -3678.4109     -3678.4109      2.8046518e-05  4.9509092e-07  2.2148623e-10  8.2774495e-11
      1694   1.694          1.8621592e-13  7.8640367e-09 -3369.4441      7.8228466e-15  4.9770056      4.3102133      221.70494     -3678.4109     -3678.4109      2.0702452e-08  4.955101e-07  -2.0293554e-10  1.143289e-11 
Loop time of 0.448548 on 2 procs for 33 steps with 326 atoms

103.5% CPU use with 1 MPI tasks x 2 OpenMP threads

Minimization stats:
  Stopping criterion = force tolerance
  Energy initial, next-to-last, final = 
     -3369.44410137771  -3369.44410137771  -3369.44410137771
  Force two-norm initial, final = 3.0389661e-05 7.8642767e-09
  Force max component initial, final = 3.038966e-05 1.9235815e-09
  Final line search alpha, max atom move = 1 1.9235815e-09
  Iterations, force evaluations = 33 66

MPI task timing breakdown:
Section |  min time  |  avg time  |  max time  |%varavg| %total
---------------------------------------------------------------
Pair    | 0.44217    | 0.44217    | 0.44217    |   0.0 | 98.58
Neigh   | 0          | 0          | 0          |   0.0 |  0.00
Comm    | 0.0017339  | 0.0017339  | 0.0017339  |   0.0 |  0.39
Output  | 8.911e-05  | 8.911e-05  | 8.911e-05  |   0.0 |  0.02
Modify  | 0          | 0          | 0          |   0.0 |  0.00
Other   |            | 0.004552   |            |       |  1.01

Nlocal:            326 ave         326 max         326 min
Histogram: 1 0 0 0 0 0 0 0 0 0
Nghost:           6987 ave        6987 max        6987 min
Histogram: 1 0 0 0 0 0 0 0 0 0
Neighs:              0 ave           0 max           0 min
Histogram: 1 0 0 0 0 0 0 0 0 0
FullNghs:        36888 ave       36888 max       36888 min
Histogram: 1 0 0 0 0 0 0 0 0 0

Total # of neighbors = 36888
Ave neighs/atom = 113.15337
Neighbor list builds = 0
Dangerous builds = 0
unfix           3
min_style       fire
minimize        0.0 1.0e-8 2000 4000
Switching to 'neigh_modify every 1 delay 0 check yes' setting during minimization
  Parameters for fire:
    dmax  delaystep dtgrow dtshrink alpha0 alphashrink tmax tmin   integrator   halfstepback   abcfire  
     0.1     20      1.1     0.5     0.25     0.99      10  0.02 eulerimplicit      yes          no     
Per MPI rank memory allocation (min/avg/max) = 4.509 | 4.509 | 4.509 Mbytes
   Step          Time           Temp          Fnorm          PotEng         KinEng           Lx             Ly             Lz            Pxx            Pyy            Pzz            Pxy            Pxz            Pyz      
      1694   1.694          0              7.8644256e-09 -3369.4441      0              4.9770056      4.3102133      221.70494     -3678.4109     -3678.4109      2.1119359e-08  4.9550292e-07 -2.1520293e-10  2.127158e-11 
      1695   1.695          6.3384107e-20  7.8537098e-09 -3369.4441      2.6627376e-21  4.9770056      4.3102133      221.70494     -3678.4109     -3678.4109      2.0035341e-08  4.9549784e-07 -2.3756848e-10  6.2856349e-12
Loop time of 0.0202003 on 2 procs for 1 steps with 326 atoms

100.1% CPU use with 1 MPI tasks x 2 OpenMP threads

Minimization stats:
  Stopping criterion = force tolerance
  Energy initial, next-to-last, final = 
     -3369.44410137771  -3369.44410137771  -3369.44410137771
  Force two-norm initial, final = 7.8644256e-09 7.8537098e-09
  Force max component initial, final = 1.9238888e-09 1.9200235e-09
  Final line search alpha, max atom move = 0 0
  Iterations, force evaluations = 1 2

MPI task timing breakdown:
Section |  min time  |  avg time  |  max time  |%varavg| %total
---------------------------------------------------------------
Pair    | 0.020018   | 0.020018   | 0.020018   |   0.0 | 99.10
Neigh   | 0          | 0          | 0          |   0.0 |  0.00
Comm    | 0.00013297 | 0.00013297 | 0.00013297 |   0.0 |  0.66
Output  | 0          | 0          | 0          |   0.0 |  0.00
Modify  | 0          | 0          | 0          |   0.0 |  0.00
Other   |            | 4.907e-05  |            |       |  0.24

Nlocal:            326 ave         326 max         326 min
Histogram: 1 0 0 0 0 0 0 0 0 0
Nghost:           6987 ave        6987 max        6987 min
Histogram: 1 0 0 0 0 0 0 0 0 0
Neighs:              0 ave           0 max           0 min
Histogram: 1 0 0 0 0 0 0 0 0 0
FullNghs:        36888 ave       36888 max       36888 min
Histogram: 1 0 0 0 0 0 0 0 0 0

Total # of neighbors = 36888
Ave neighs/atom = 113.15337
Neighbor list builds = 0
Dangerous builds = 0

fix             3 all box/relax z 0.0 vmax 0.001
min_style       cg
minimize        0.0 1.0e-8 1000 2000
Switching to 'neigh_modify every 1 delay 0 check yes' setting during minimization
WARNING: Energy due to 3 extra global DOFs will be included in minimizer energies
 (src/min.cpp:219)
Per MPI rank memory allocation (min/avg/max) = 5.634 | 5.634 | 5.634 Mbytes
   Step          Time           Temp          Fnorm          PotEng         KinEng           Lx             Ly             Lz            Pxx            Pyy            Pzz            Pxy            Pxz            Pyz      
      1695   1.695          6.3384107e-20  7.8537948e-09 -3369.4441      2.6627376e-21  4.9770056      4.3102133      221.70494     -3678.4109     -3678.4109      2.0530524e-08  4.9534075e-07 -3.0646035e-10  5.3323876e-11
      1697   1.697          6.3384107e-20  6.6466988e-09 -3369.4441      2.6627376e-21  4.9770056      4.3102133      221.70494     -3678.4109     -3678.4109      5.2773743e-07  4.9538952e-07 -2.7287463e-10 -8.5724465e-11
Loop time of 0.0343173 on 2 procs for 2 steps with 326 atoms

101.4% CPU use with 1 MPI tasks x 2 OpenMP threads

Minimization stats:
  Stopping criterion = force tolerance
  Energy initial, next-to-last, final = 
     -3369.44410137771  -3369.44410137771  -3369.44410137771
  Force two-norm initial, final = 7.8540313e-09 6.8288173e-09
  Force max component initial, final = 1.9200019e-09 2.1633e-09
  Final line search alpha, max atom move = 1 2.1633e-09
  Iterations, force evaluations = 2 4

MPI task timing breakdown:
Section |  min time  |  avg time  |  max time  |%varavg| %total
---------------------------------------------------------------
Pair    | 0.033906   | 0.033906   | 0.033906   |   0.0 | 98.80
Neigh   | 0          | 0          | 0          |   0.0 |  0.00
Comm    | 0.000122   | 0.000122   | 0.000122   |   0.0 |  0.36
Output  | 0          | 0          | 0          |   0.0 |  0.00
Modify  | 0          | 0          | 0          |   0.0 |  0.00
Other   |            | 0.0002897  |            |       |  0.84

Nlocal:            326 ave         326 max         326 min
Histogram: 1 0 0 0 0 0 0 0 0 0
Nghost:           6987 ave        6987 max        6987 min
Histogram: 1 0 0 0 0 0 0 0 0 0
Neighs:              0 ave           0 max           0 min
Histogram: 1 0 0 0 0 0 0 0 0 0
FullNghs:        36888 ave       36888 max       36888 min
Histogram: 1 0 0 0 0 0 0 0 0 0

Total # of neighbors = 36888
Ave neighs/atom = 113.15337
Neighbor list builds = 0
Dangerous builds = 0
unfix           3
min_style       fire
minimize        0.0 1.0e-8 2000 4000
Switching to 'neigh_modify every 1 delay 0 check yes' setting during minimization
  Parameters for fire:
    dmax  delaystep dtgrow dtshrink alpha0 alphashrink tmax tmin   integrator   halfstepback   abcfire  
     0.1     20      1.1     0.5     0.25     0.99      10  0.02 eulerimplicit      yes          no     
Per MPI rank memory allocation (min/avg/max) = 4.509 | 4.509 | 4.509 Mbytes
   Step          Time           Temp          Fnorm          PotEng         KinEng           Lx             Ly             Lz            Pxx            Pyy            Pzz            Pxy            Pxz            Pyz      
      1697   1.697          0              6.6467516e-09 -3369.4441      0              4.9770056      4.3102133      221.70494     -3678.4109     -3678.4109      5.2822245e-07  4.9536708e-07 -2.842444e-10   4.4616554e-11
      1698   1.698          3.734191e-20   6.6381451e-09 -3369.4441      1.5687167e-21  4.9770056      4.3102133      221.70494     -3678.4109     -3678.4109      5.2834213e-07  4.9540389e-07 -2.7272502e-10  9.486657e-11 
Loop time of 0.0191011 on 2 procs for 1 steps with 326 atoms

104.5% CPU use with 1 MPI tasks x 2 OpenMP threads

Minimization stats:
  Stopping criterion = force tolerance
  Energy initial, next-to-last, final = 
     -3369.44410137771  -3369.44410137771  -3369.44410137771
  Force two-norm initial, final = 6.6467516e-09 6.6381451e-09
  Force max component initial, final = 2.1635602e-09 2.1589547e-09
  Final line search alpha, max atom move = 0 0
  Iterations, force evaluations = 1 2

MPI task timing breakdown:
Section |  min time  |  avg time  |  max time  |%varavg| %total
---------------------------------------------------------------
Pair    | 0.018971   | 0.018971   | 0.018971   |   0.0 | 99.32
Neigh   | 0          | 0          | 0          |   0.0 |  0.00
Comm    | 8.6548e-05 | 8.6548e-05 | 8.6548e-05 |   0.0 |  0.45
Output  | 0          | 0          | 0          |   0.0 |  0.00
Modify  | 0          | 0          | 0          |   0.0 |  0.00
Other   |            | 4.355e-05  |            |       |  0.23

Nlocal:            326 ave         326 max         326 min
Histogram: 1 0 0 0 0 0 0 0 0 0
Nghost:           6987 ave        6987 max        6987 min
Histogram: 1 0 0 0 0 0 0 0 0 0
Neighs:              0 ave           0 max           0 min
Histogram: 1 0 0 0 0 0 0 0 0 0
FullNghs:        36888 ave       36888 max       36888 min
Histogram: 1 0 0 0 0 0 0 0 0 0

Total # of neighbors = 36888
Ave neighs/atom = 113.15337
Neighbor list builds = 0
Dangerous builds = 0

fix             3 all box/relax z 0.0 vmax 0.001
min_style       cg
minimize        0.0 1.0e-8 1000 2000
Switching to 'neigh_modify every 1 delay 0 check yes' setting during minimization
WARNING: Energy due to 3 extra global DOFs will be included in minimizer energies
 (src/min.cpp:219)
Per MPI rank memory allocation (min/avg/max) = 5.634 | 5.634 | 5.634 Mbytes
   Step          Time           Temp          Fnorm          PotEng         KinEng           Lx             Ly             Lz            Pxx            Pyy            Pzz            Pxy            Pxz            Pyz      
      1698   1.698          3.734191e-20   6.6389184e-09 -3369.4441      1.5687167e-21  4.9770056      4.3102133      221.70494     -3678.4109     -3678.4109      5.2867245e-07  4.9531382e-07 -2.1348251e-10  8.9228432e-11
      1700   1.7            3.734191e-20   5.0484111e-09 -3369.4441      1.5687167e-21  4.9770056      4.3102133      221.70494     -3678.4109     -3678.4109      1.7690175e-08  4.9527134e-07 -1.7481031e-10  1.6835403e-10
Loop time of 0.0315118 on 2 procs for 2 steps with 326 atoms

101.6% CPU use with 1 MPI tasks x 2 OpenMP threads

Minimization stats:
  Stopping criterion = force tolerance
  Energy initial, next-to-last, final = 
     -3369.44410137771  -3369.44410137771  -3369.44410137771
  Force two-norm initial, final = 6.8218827e-09 5.0486842e-09
  Force max component initial, final = 2.159167e-09 1.486653e-09
  Final line search alpha, max atom move = 1 1.486653e-09
  Iterations, force evaluations = 2 4

MPI task timing breakdown:
Section |  min time  |  avg time  |  max time  |%varavg| %total
---------------------------------------------------------------
Pair    | 0.031153   | 0.031153   | 0.031153   |   0.0 | 98.86
Neigh   | 0          | 0          | 0          |   0.0 |  0.00
Comm    | 0.00010004 | 0.00010004 | 0.00010004 |   0.0 |  0.32
Output  | 0          | 0          | 0          |   0.0 |  0.00
Modify  | 0          | 0          | 0          |   0.0 |  0.00
Other   |            | 0.000259   |            |       |  0.82

Nlocal:            326 ave         326 max         326 min
Histogram: 1 0 0 0 0 0 0 0 0 0
Nghost:           6987 ave        6987 max        6987 min
Histogram: 1 0 0 0 0 0 0 0 0 0
Neighs:              0 ave           0 max           0 min
Histogram: 1 0 0 0 0 0 0 0 0 0
FullNghs:        36888 ave       36888 max       36888 min
Histogram: 1 0 0 0 0 0 0 0 0 0

Total # of neighbors = 36888
Ave neighs/atom = 113.15337
Neighbor list builds = 0
Dangerous builds = 0
unfix           3
min_style       fire
minimize        0.0 1.0e-8 2000 4000
Switching to 'neigh_modify every 1 delay 0 check yes' setting during minimization
  Parameters for fire:
    dmax  delaystep dtgrow dtshrink alpha0 alphashrink tmax tmin   integrator   halfstepback   abcfire  
     0.1     20      1.1     0.5     0.25     0.99      10  0.02 eulerimplicit      yes          no     
Per MPI rank memory allocation (min/avg/max) = 4.509 | 4.509 | 4.509 Mbytes
   Step          Time           Temp          Fnorm          PotEng         KinEng           Lx             Ly             Lz            Pxx            Pyy            Pzz            Pxy            Pxz            Pyz      
      1700   1.7            0              5.0481516e-09 -3369.4441      0              4.9770056      4.3102133      221.70494     -3678.4109     -3678.4109      1.7890941e-08  4.9529468e-07 -1.2312271e-10  1.8561908e-10
      1701   1.701          2.3970995e-20  5.0430644e-09 -3369.4441      1.0070106e-21  4.9770056      4.3102133      221.70494     -3678.4109     -3678.4109      1.7066632e-08  4.9529827e-07 -9.4773068e-11  1.4758502e-10
Loop time of 0.020304 on 2 procs for 1 steps with 326 atoms

108.9% CPU use with 1 MPI tasks x 2 OpenMP threads

Minimization stats:
  Stopping criterion = force tolerance
  Energy initial, next-to-last, final = 
     -3369.44410137771  -3369.44410137771  -3369.44410137771
  Force two-norm initial, final = 5.0481516e-09 5.0430644e-09
  Force max component initial, final = 1.4866666e-09 1.4834647e-09
  Final line search alpha, max atom move = 0 0
  Iterations, force evaluations = 1 2

MPI task timing breakdown:
Section |  min time  |  avg time  |  max time  |%varavg| %total
---------------------------------------------------------------
Pair    | 0.02014    | 0.02014    | 0.02014    |   0.0 | 99.19
Neigh   | 0          | 0          | 0          |   0.0 |  0.00
Comm    | 0.00012114 | 0.00012114 | 0.00012114 |   0.0 |  0.60
Output  | 0          | 0          | 0          |   0.0 |  0.00
Modify  | 0          | 0          | 0          |   0.0 |  0.00
Other   |            | 4.324e-05  |            |       |  0.21

Nlocal:            326 ave         326 max         326 min
Histogram: 1 0 0 0 0 0 0 0 0 0
Nghost:           6987 ave        6987 max        6987 min
Histogram: 1 0 0 0 0 0 0 0 0 0
Neighs:              0 ave           0 max           0 min
Histogram: 1 0 0 0 0 0 0 0 0 0
FullNghs:        36888 ave       36888 max       36888 min
Histogram: 1 0 0 0 0 0 0 0 0 0

Total # of neighbors = 36888
Ave neighs/atom = 113.15337
Neighbor list builds = 0
Dangerous builds = 0

fix             3 all box/relax z 0.0 vmax 0.001
min_style       cg
minimize        0.0 1.0e-8 1000 2000
Switching to 'neigh_modify every 1 delay 0 check yes' setting during minimization
WARNING: Energy due to 3 extra global DOFs will be included in minimizer energies
 (src/min.cpp:219)
Per MPI rank memory allocation (min/avg/max) = 5.634 | 5.634 | 5.634 Mbytes
   Step          Time           Temp          Fnorm          PotEng         KinEng           Lx             Ly             Lz            Pxx            Pyy            Pzz            Pxy            Pxz            Pyz      
      1701   1.701          2.3970995e-20  5.0434134e-09 -3369.4441      1.0070106e-21  4.9770056      4.3102133      221.70494     -3678.4109     -3678.4109      1.6924211e-08  4.9537277e-07 -1.7488511e-10  1.7488511e-10
      1703   1.703          2.3970995e-20  5.2330548e-09 -3369.4441      1.0070106e-21  4.9770056      4.3102133      221.70494     -3678.4109     -3678.4109      3.9344632e-07  4.9542094e-07 -9.2229829e-11 -1.0271134e-11
Loop time of 0.0328873 on 2 procs for 2 steps with 326 atoms

106.5% CPU use with 1 MPI tasks x 2 OpenMP threads

Minimization stats:
  Stopping criterion = force tolerance
  Energy initial, next-to-last, final = 
     -3369.44410137771  -3369.44410137771  -3369.44410137771
  Force two-norm initial, final = 5.0436636e-09 5.3618025e-09
  Force max component initial, final = 1.4831607e-09 1.7264759e-09
  Final line search alpha, max atom move = 1 1.7264759e-09
  Iterations, force evaluations = 2 4

MPI task timing breakdown:
Section |  min time  |  avg time  |  max time  |%varavg| %total
---------------------------------------------------------------
Pair    | 0.032519   | 0.032519   | 0.032519   |   0.0 | 98.88
Neigh   | 0          | 0          | 0          |   0.0 |  0.00
Comm    | 9.9049e-05 | 9.9049e-05 | 9.9049e-05 |   0.0 |  0.30
Output  | 0          | 0          | 0          |   0.0 |  0.00
Modify  | 0          | 0          | 0          |   0.0 |  0.00
Other   |            | 0.0002689  |            |       |  0.82

Nlocal:            326 ave         326 max         326 min
Histogram: 1 0 0 0 0 0 0 0 0 0
Nghost:           6987 ave        6987 max        6987 min
Histogram: 1 0 0 0 0 0 0 0 0 0
Neighs:              0 ave           0 max           0 min
Histogram: 1 0 0 0 0 0 0 0 0 0
FullNghs:        36888 ave       36888 max       36888 min
Histogram: 1 0 0 0 0 0 0 0 0 0

Total # of neighbors = 36888
Ave neighs/atom = 113.15337
Neighbor list builds = 0
Dangerous builds = 0
unfix           3
min_style       fire
minimize        0.0 1.0e-8 2000 4000
Switching to 'neigh_modify every 1 delay 0 check yes' setting during minimization
  Parameters for fire:
    dmax  delaystep dtgrow dtshrink alpha0 alphashrink tmax tmin   integrator   halfstepback   abcfire  
     0.1     20      1.1     0.5     0.25     0.99      10  0.02 eulerimplicit      yes          no     
Per MPI rank memory allocation (min/avg/max) = 4.509 | 4.509 | 4.509 Mbytes
   Step          Time           Temp          Fnorm          PotEng         KinEng           Lx             Ly             Lz            Pxx            Pyy            Pzz            Pxy            Pxz            Pyz      
      1703   1.703          0              5.2326141e-09 -3369.4441      0              4.9770056      4.3102133      221.70494     -3678.4109     -3678.4109      3.940549e-07   4.9542124e-07 -8.2131672e-11 -7.1360305e-11
      1704   1.704          2.4180241e-20  5.2261657e-09 -3369.4441      1.015801e-21   4.9770056      4.3102133      221.70494     -3678.4109     -3678.4109      3.9406597e-07  4.9547958e-07 -1.0539483e-10 -8.2622555e-11
Loop time of 0.019395 on 2 procs for 1 steps with 326 atoms

97.9% CPU use with 1 MPI tasks x 2 OpenMP threads

Minimization stats:
  Stopping criterion = force tolerance
  Energy initial, next-to-last, final = 
     -3369.44410137771  -3369.44410137771  -3369.44410137771
  Force two-norm initial, final = 5.2326141e-09 5.2261657e-09
  Force max component initial, final = 1.7266543e-09 1.7231866e-09
  Final line search alpha, max atom move = 0 0
  Iterations, force evaluations = 1 2

MPI task timing breakdown:
Section |  min time  |  avg time  |  max time  |%varavg| %total
---------------------------------------------------------------
Pair    | 0.019291   | 0.019291   | 0.019291   |   0.0 | 99.46
Neigh   | 0          | 0          | 0          |   0.0 |  0.00
Comm    | 6.5139e-05 | 6.5139e-05 | 6.5139e-05 |   0.0 |  0.34
Output  | 0          | 0          | 0          |   0.0 |  0.00
Modify  | 0          | 0          | 0          |   0.0 |  0.00
Other   |            | 3.915e-05  |            |       |  0.20

Nlocal:            326 ave         326 max         326 min
Histogram: 1 0 0 0 0 0 0 0 0 0
Nghost:           6987 ave        6987 max        6987 min
Histogram: 1 0 0 0 0 0 0 0 0 0
Neighs:              0 ave           0 max           0 min
Histogram: 1 0 0 0 0 0 0 0 0 0
FullNghs:        36888 ave       36888 max       36888 min
Histogram: 1 0 0 0 0 0 0 0 0 0

Total # of neighbors = 36888
Ave neighs/atom = 113.15337
Neighbor list builds = 0
Dangerous builds = 0

fix             3 all box/relax z 0.0 vmax 0.001
min_style       cg
minimize        0.0 1.0e-8 1000 2000
Switching to 'neigh_modify every 1 delay 0 check yes' setting during minimization
WARNING: Energy due to 3 extra global DOFs will be included in minimizer energies
 (src/min.cpp:219)
Per MPI rank memory allocation (min/avg/max) = 5.634 | 5.634 | 5.634 Mbytes
   Step          Time           Temp          Fnorm          PotEng         KinEng           Lx             Ly             Lz            Pxx            Pyy            Pzz            Pxy            Pxz            Pyz      
      1704   1.704          2.4180241e-20  5.2265176e-09 -3369.4441      1.015801e-21   4.9770056      4.3102133      221.70494     -3678.4109     -3678.4109      3.9414436e-07  4.9541675e-07 -1.2536674e-10 -1.5071498e-10
      1706   1.706          2.4180241e-20  4.2138831e-09 -3369.4441      1.015801e-21   4.9770056      4.3102133      221.70494     -3678.4109     -3678.4109      2.1686352e-08  4.9549245e-07 -3.036927e-11  -2.0203092e-10
Loop time of 0.0317018 on 2 procs for 2 steps with 326 atoms

100.9% CPU use with 1 MPI tasks x 2 OpenMP threads

Minimization stats:
  Stopping criterion = force tolerance
  Energy initial, next-to-last, final = 
     -3369.44410137771  -3369.44410137771  -3369.44410137771
  Force two-norm initial, final = 5.3558748e-09 4.2143748e-09
  Force max component initial, final = 1.7227989e-09 1.2306439e-09
  Final line search alpha, max atom move = 1 1.2306439e-09
  Iterations, force evaluations = 2 4

MPI task timing breakdown:
Section |  min time  |  avg time  |  max time  |%varavg| %total
---------------------------------------------------------------
Pair    | 0.031323   | 0.031323   | 0.031323   |   0.0 | 98.80
Neigh   | 0          | 0          | 0          |   0.0 |  0.00
Comm    | 0.00010236 | 0.00010236 | 0.00010236 |   0.0 |  0.32
Output  | 0          | 0          | 0          |   0.0 |  0.00
Modify  | 0          | 0          | 0          |   0.0 |  0.00
Other   |            | 0.0002767  |            |       |  0.87

Nlocal:            326 ave         326 max         326 min
Histogram: 1 0 0 0 0 0 0 0 0 0
Nghost:           6987 ave        6987 max        6987 min
Histogram: 1 0 0 0 0 0 0 0 0 0
Neighs:              0 ave           0 max           0 min
Histogram: 1 0 0 0 0 0 0 0 0 0
FullNghs:        36888 ave       36888 max       36888 min
Histogram: 1 0 0 0 0 0 0 0 0 0

Total # of neighbors = 36888
Ave neighs/atom = 113.15337
Neighbor list builds = 0
Dangerous builds = 0
unfix           3
min_style       fire
minimize        0.0 1.0e-8 2000 4000
Switching to 'neigh_modify every 1 delay 0 check yes' setting during minimization
  Parameters for fire:
    dmax  delaystep dtgrow dtshrink alpha0 alphashrink tmax tmin   integrator   halfstepback   abcfire  
     0.1     20      1.1     0.5     0.25     0.99      10  0.02 eulerimplicit      yes          no     
Per MPI rank memory allocation (min/avg/max) = 4.509 | 4.509 | 4.509 Mbytes
   Step          Time           Temp          Fnorm          PotEng         KinEng           Lx             Ly             Lz            Pxx            Pyy            Pzz            Pxy            Pxz            Pyz      
      1706   1.706          0              4.2136173e-09 -3369.4441      0              4.9770056      4.3102133      221.70494     -3678.4109     -3678.4109      2.1556497e-08  4.9546732e-07 -4.3309871e-11 -1.022602e-10 
      1707   1.707          1.7502487e-20  4.2094714e-09 -3369.4441      7.3527156e-22  4.9770056      4.3102133      221.70494     -3678.4109     -3678.4109      2.1227372e-08  4.955107e-07  -3.5081743e-11 -8.1481837e-11
Loop time of 0.0185529 on 2 procs for 1 steps with 326 atoms

101.1% CPU use with 1 MPI tasks x 2 OpenMP threads

Minimization stats:
  Stopping criterion = force tolerance
  Energy initial, next-to-last, final = 
     -3369.44410137771  -3369.44410137771  -3369.44410137771
  Force two-norm initial, final = 4.2136173e-09 4.2094714e-09
  Force max component initial, final = 1.2310666e-09 1.2283363e-09
  Final line search alpha, max atom move = 0 0
  Iterations, force evaluations = 1 2

MPI task timing breakdown:
Section |  min time  |  avg time  |  max time  |%varavg| %total
---------------------------------------------------------------
Pair    | 0.018451   | 0.018451   | 0.018451   |   0.0 | 99.45
Neigh   | 0          | 0          | 0          |   0.0 |  0.00
Comm    | 6.4455e-05 | 6.4455e-05 | 6.4455e-05 |   0.0 |  0.35
Output  | 0          | 0          | 0          |   0.0 |  0.00
Modify  | 0          | 0          | 0          |   0.0 |  0.00
Other   |            | 3.693e-05  |            |       |  0.20

Nlocal:            326 ave         326 max         326 min
Histogram: 1 0 0 0 0 0 0 0 0 0
Nghost:           6987 ave        6987 max        6987 min
Histogram: 1 0 0 0 0 0 0 0 0 0
Neighs:              0 ave           0 max           0 min
Histogram: 1 0 0 0 0 0 0 0 0 0
FullNghs:        36888 ave       36888 max       36888 min
Histogram: 1 0 0 0 0 0 0 0 0 0

Total # of neighbors = 36888
Ave neighs/atom = 113.15337
Neighbor list builds = 0
Dangerous builds = 0


write_data      fire_cg_${name}.data
write_data      fire_cg_lmps.data
System init for write_data ...

write_data      bi_minimised.data
System init for write_data ...

print """- step: $(step)
  atoms: $(atoms)
  temp: $(temp)
  press: $(press)
  pe: $(pe)
  ke: $(ke)
  etotal: $(etotal)
  vol: $(vol)
  avecx: $(avecx)
  avecy: $(avecy)
  avecz: $(avecz)
  bvecx: $(bvecx)
  bvecy: $(bvecy)
  bvecz: $(bvecz)
  cvecx: $(cvecx)
  cvecy: $(cvecy)
  cvecz: $(cvecz)
  lx: $(lx)
  ly: $(ly)
  lz: $(lz)
  cella: $(cella)
  cellb: $(cellb)
  cellc: $(cellc)
  cellalpha: $(cellalpha)
  cellbeta: $(cellbeta)
  cellgamma: $(cellgamma)
  pxx: $(pxx)
  pyy: $(pyy)
  pzz: $(pzz)
  pxy: $(pxy)
  pyz: $(pyz)
  pxz: $(pxz)
  xlo: $(xlo)
  xhi: $(xhi)
  ylo: $(ylo)
  yhi: $(yhi)
  zlo: $(zlo)
  zhi: $(zhi)
  xy: $(xy)
  xz: $(xz)
  yz: $(yz)
""" file bi_minimised.data.yaml screen yes universe no
- step: 1707
  atoms: 326
  temp: 1.7502487237421315334e-20
  press: -2452.2739599041597103
  pe: -3369.4441013777100125
  ke: 7.3527156240516186222e-22
  etotal: -3369.4441013777100125
  vol: 4756.0045056614253554
  avecx: 4.9770056176543331361
  avecy: 0
  avecz: 0
  bvecx: -2.4885028088300003013
  bvecy: 4.3102132996662358977
  bvecz: 0
  cvecx: 0
  cvecy: 0
  cvecz: 221.70493677745037076
  lx: 4.9770056176543331361
  ly: 4.3102132996662358977
  lz: 221.70493677745037076
  cella: 4.9770056176543331361
  cellb: 4.9770056176555090843
  cellc: 221.70493677745037076
  cellalpha: 90
  cellbeta: 90
  cellgamma: 120.00000000002985701
  pxx: -3678.4109399153594495
  pyy: -3678.4109398183445592
  pzz: 2.122737203036828999e-08
  pxy: 4.9551070147819829671e-07
  pyz: -8.1481837222299807119e-11
  pxz: -3.5081743445758262942e-11
  xlo: -0.019038925427171102256
  xhi: 4.9579666922271616869
  ylo: -0.016488193083117452103
  yhi: 4.293725106583118567
  zlo: -6.1333392967749302827
  zhi: 215.57159748067545024
  xy: -2.4885028088300003013
  xz: 0
  yz: 0

[GRACE:debug, proc #0]: Data preparation timer: 1.26121e+06 mcs, graph execution time: 2.12426e+07 mcs, data preparation time fraction: 5.60 %
Total wall time: 0:00:25
