
thermo          10
thermo_style    custom step time temp fnorm pe ke lx ly lz pxx pyy pzz pxy pxz pyz

timestep        0.001

min_style       fire
minimize        0.0 1.0e-8 2000 4000

CITE-CITE-CITE-CITE-CITE-CITE-CITE-CITE-CITE-CITE-CITE-CITE-CITE

Your simulation uses code contributions which should be cited:

- Type Label Framework: https://doi.org/10.1021/acs.jpcb.3c08419

@Article{Gissinger24,
 author = {Jacob R. Gissinger, Ilia Nikiforov, Yaser Afshar, Brendon Waters, Moon-ki Choi, Daniel S. Karls, Alexander Stukowski, Wonpil Im, Hendrik Heinz, Axel Kohlmeyer, and Ellad B. Tadmor},
 title = {Type Label Framework for Bonded Force Fields in LAMMPS},
 journal = {J. Phys. Chem. B},
 year =    2024,
 volume =  128,
 number =  13,
 pages =   {3282–-3297}
}

CITE-CITE-CITE-CITE-CITE-CITE-CITE-CITE-CITE-CITE-CITE-CITE-CITE

Switching to 'neigh_modify every 1 delay 0 check yes' setting during minimization
Neighbor list info ...
  update: every = 1 steps, delay = 0 steps, check = yes
  max neighbors/atom: 2000, page size: 100000
  master list distance cutoff = 7.4
  ghost atom cutoff = 7.4
  binsize = 3.7, bins = 3 2 56
  1 neighbor lists, perpetual/occasional/extra = 1 0 0
  (1) pair grace, perpetual
      attributes: full, newton on
      pair build: full/bin/atomonly
      stencil: full/bin/3d
      bin: standard
  Parameters for fire:
    dmax  delaystep dtgrow dtshrink alpha0 alphashrink tmax tmin   integrator   halfstepback   abcfire  
     0.1     20      1.1     0.5     0.25     0.99      10  0.02 eulerimplicit      yes          no     
[GRACE] Atoms padding: new num. of atoms = 327 (incl. 0.917% fake atoms)
[GRACE] Neighbours padding: extending new num. of neighbours = 21864 (incl. 0.988% fake neighbours)
Per MPI rank memory allocation (min/avg/max) = 4.504 | 4.504 | 4.504 Mbytes
   Step          Time           Temp          Fnorm          PotEng         KinEng           Lx             Ly             Lz            Pxx            Pyy            Pzz            Pxy            Pxz            Pyz      
         0   0              0              63.121248     -3207.0634      0              4.9770056      4.3102133      205.55514      177540.97      177540.97      351810.65      9.2426634e-07  1.9814527e-10 -5.4982084e-11
        10   0.01           449.41914      53.327446     -3233.5467      18.763711      4.9770056      4.3102133      205.55514      161268.07      161268.07      342995.94      8.8276025e-07 -2.0887479e-10 -1.5115789e-11
        20   0.02           1320.5296      33.211334     -3281.5768      55.133466      4.9770056      4.3102133      205.55514      129337.64      129337.64      329997.02      8.0566857e-07 -3.4247759e-10  1.504863e-10 
        30   0.070738431    2304.0244      6.0675759     -3323.9955      96.195384      4.9770056      4.3102133      205.55514      103846.38      103846.38      305500         7.132203e-07  -2.2873174e-11  9.6440827e-11
        40   0.057062334    2.0562357      4.0354742     -3325.7811      0.085849953    4.9770056      4.3102133      205.55514      107302.33      107302.33      225569.2       6.8513693e-07 -1.4524662e-10 -8.4123916e-11
        50   0.071327918    9.1075447      3.0344375     -3326.0772      0.38024935     4.9770056      4.3102133      205.55514      107887.28      107887.28      224607.13      6.8452241e-07 -4.2087666e-10 -1.2228456e-10
        60   0.16679752     18.125126      1.5022423     -3326.4551      0.75674262     4.9770056      4.3102133      205.55514      109292.5       109292.5       222677.89      6.8188971e-07 -9.7886245e-11 -5.1110786e-12
        70   0.50473478     19.650935      0.65289556    -3326.9137      0.8204467      4.9770056      4.3102133      205.55514      110403.41      110403.41      219987.83      6.7589546e-07  3.2353519e-11  4.8371989e-11
        80   0.8            14.723147      0.23802575    -3327.2453      0.6147065      4.9770056      4.3102133      205.55514      110215.39      110215.39      218938.16      6.7647248e-07 -8.5662565e-11 -3.9841166e-11
        90   0.9            7.7656021      0.1392998     -3327.3614      0.32422186     4.9770056      4.3102133      205.55514      110044.95      110044.95      218455.92      6.7663259e-07 -1.0313468e-10  1.6555949e-11
       100   1              1.6436776      0.055201371   -3327.3888      0.068625228    4.9770056      4.3102133      205.55514      110046.25      110046.25      218152.57      6.7639442e-07  1.1310868e-10  7.5150611e-11
       110   0.55           7.305707e-05   0.016238759   -3327.3904      3.0502077e-06  4.9770056      4.3102133      205.55514      110054.05      110054.05      218077.56      6.7648133e-07  6.3261439e-11 -4.3028981e-11
       120   0.6            0.00047882314  0.0085320209  -3327.3904      1.9991358e-05  4.9770056      4.3102133      205.55514      110054.61      110054.61      218073.99      6.7643421e-07  1.1176259e-12 -4.6816061e-11
       130   0.7865         0.00093139659  0.0047865408  -3327.3904      3.8886764e-05  4.9770056      4.3102133      205.55514      110055.32      110055.32      218072.39      6.7645229e-07  2.2094758e-11  1.4795402e-12
       140   1.4            0.00048855548  0.0010058152  -3327.3904      2.0397693e-05  4.9770056      4.3102133      205.55514      110055.55      110055.55      218070.33      6.7636951e-07  8.3080642e-11 -8.4379929e-12
       150   0.75           7.2897711e-07  0.00065597943 -3327.3904      3.0435543e-08  4.9770056      4.3102133      205.55514      110055.46      110055.46      218070.34      6.7644067e-07  6.6640102e-11  6.1234606e-11
       160   0.8            2.4107946e-06  0.00047499515 -3327.3904      1.0065315e-07  4.9770056      4.3102133      205.55514      110055.48      110055.48      218070.36      6.7639387e-07  1.4521832e-11  5.1593953e-11
       170   1.6564095      5.0148404e-06  0.00025954722 -3327.3904      2.0937473e-07  4.9770056      4.3102133      205.55514      110055.47      110055.47      218070.47      6.7640097e-07  3.2594782e-11  4.2971484e-11
       180   1.8            6.8182277e-06  0.00015615614 -3327.3904      2.8466801e-07  4.9770056      4.3102133      205.55514      110055.46      110055.46      218070.59      6.7637726e-07 -5.0990624e-11 -2.245655e-12 
       190   1.9            3.9225367e-06  0.00011169619 -3327.3904      1.6376994e-07  4.9770056      4.3102133      205.55514      110055.45      110055.45      218070.64      6.7640791e-07  1.5814416e-11  1.7145045e-10
       200   2              9.0323793e-07  3.8102908e-05 -3327.3904      3.7711111e-08  4.9770056      4.3102133      205.55514      110055.45      110055.45      218070.68      6.7642841e-07  4.098338e-11  -2.0687077e-10
       210   1.05           3.0029975e-11  2.9786245e-05 -3327.3904      1.2537823e-12  4.9770056      4.3102133      205.55514      110055.44      110055.44      218070.7       6.7648924e-07  1.5732222e-10  1.1684206e-10
       220   0.55           3.8040264e-12  4.6783411e-06 -3327.3904      1.5882201e-13  4.9770056      4.3102133      205.55514      110055.45      110055.45      218070.7       6.764226e-07   5.227937e-11  -4.6369704e-11
       230   0.575          2.2903918e-11  3.4099779e-06 -3327.3904      9.5626209e-13  4.9770056      4.3102133      205.55514      110055.45      110055.45      218070.7       6.7646294e-07  1.1585367e-10 -9.8457446e-11
       240   0.87846        5.0382385e-11  3.236967e-06  -3327.3904      2.1035163e-12  4.9770056      4.3102133      205.55514      110055.45      110055.45      218070.7       6.7633724e-07  9.0036688e-11  2.0653577e-11
       250   2.3734365      1.7085909e-10  3.0158884e-06 -3327.3904      7.1335423e-12  4.9770056      4.3102133      205.55514      110055.45      110055.45      218070.7       6.7639936e-07  1.1294929e-11  6.9816751e-11
       260   2.6            4.597704e-10   2.3811701e-06 -3327.3904      1.9195886e-11  4.9770056      4.3102133      205.55514      110055.44      110055.44      218070.7       6.76471e-07   -1.0714043e-10  3.9138921e-11
       270   2.7            7.7952718e-10  1.5069054e-06 -3327.3904      3.254606e-11   4.9770056      4.3102133      205.55514      110055.44      110055.44      218070.7       6.7649601e-07  4.46956e-11    2.8862552e-11
       280   2.8            6.6938044e-10  1.3307565e-06 -3327.3904      2.7947321e-11  4.9770056      4.3102133      205.55514      110055.44      110055.44      218070.7       6.7645503e-07 -5.7765622e-11 -9.2719418e-11
       290   1.45           1.2688374e-12  3.7548807e-07 -3327.3904      5.2975264e-14  4.9770056      4.3102133      205.55514      110055.44      110055.44      218070.7       6.7634886e-07  9.6974993e-11 -5.5466159e-11
       300   0.75           5.6549758e-14  3.2239458e-07 -3327.3904      2.3610105e-15  4.9770056      4.3102133      205.55514      110055.44      110055.44      218070.7       6.7637758e-07  8.0839396e-11  4.4685549e-11
       310   0.775          2.0588715e-13  3.1047052e-07 -3327.3904      8.5959999e-15  4.9770056      4.3102133      205.55514      110055.44      110055.44      218070.7       6.7638968e-07  6.454243e-12  -3.2049351e-11
       320   1.8863582      6.2337812e-13  3.0044958e-07 -3327.3904      2.6026677e-14  4.9770056      4.3102133      205.55514      110055.44      110055.44      218070.7       6.763708e-07  -2.839867e-11  -5.124064e-11 
       330   3.3            2.3942054e-12  2.6229738e-07 -3327.3904      9.9960532e-14  4.9770056      4.3102133      205.55514      110055.44      110055.44      218070.7       6.7630045e-07 -4.5502415e-11 -6.0004287e-12
       340   3.4            5.181708e-12   1.935859e-07  -3327.3904      2.1634163e-13  4.9770056      4.3102133      205.55514      110055.44      110055.44      218070.7       6.7635483e-07  3.7757322e-11  1.504948e-10 
       350   3.5            7.7712243e-12  1.0436818e-07 -3327.3904      3.244566e-13   4.9770056      4.3102133      205.55514      110055.44      110055.44      218070.7       6.7649456e-07 -1.3828216e-10 -1.12445e-11  
       360   3.6            3.7472704e-12  2.5212395e-07 -3327.3904      1.5645239e-13  4.9770056      4.3102133      205.55514      110055.44      110055.44      218070.7       6.7718839e-07 -3.0609217e-10 -9.196886e-10 
       370   0.925          1.1348268e-16  2.5143547e-08 -3327.3904      4.7380183e-18  4.9770056      4.3102133      205.55514      110055.44      110055.44      218070.7       6.7659541e-07  5.9701751e-12 -1.1517799e-10
       380   0.95           8.2583589e-16  1.9960108e-08 -3327.3904      3.4479496e-17  4.9770056      4.3102133      205.55514      110055.44      110055.44      218070.7       6.7641098e-07  2.3235276e-11  1.0189637e-10
       390   1.4274975      1.9253127e-15  1.881111e-08  -3327.3904      8.0383781e-17  4.9770056      4.3102133      205.55514      110055.44      110055.44      218070.7       6.7640598e-07  7.9225835e-11 -7.8953547e-11
       400   3.7974983      5.9721498e-15  1.7496133e-08 -3327.3904      2.4934339e-16  4.9770056      4.3102133      205.55514      110055.44      110055.44      218070.7       6.7644067e-07 -2.7269177e-11  2.1157816e-11
       410   4.1            1.583055e-14   1.3758993e-08 -3327.3904      6.6094172e-16  4.9770056      4.3102133      205.55514      110055.44      110055.44      218070.7       6.763274e-07   3.3400708e-11  1.0110975e-10
       418   4.18           2.4632519e-14  9.7589308e-09 -3327.3904      1.028433e-15   4.9770056      4.3102133      205.55514      110055.44      110055.44      218070.7       6.7630416e-07  2.1218324e-10 -1.7355863e-11
Loop time of 2.72307 on 2 procs for 418 steps with 324 atoms

101.6% CPU use with 1 MPI tasks x 2 OpenMP threads

Minimization stats:
  Stopping criterion = force tolerance
  Energy initial, next-to-last, final = 
     -3207.06340738029  -3327.39044384725  -3327.39044384725
  Force two-norm initial, final = 63.121248 9.7589308e-09
  Force max component initial, final = 4.8159358 8.1981222e-10
  Final line search alpha, max atom move = 0 0
  Iterations, force evaluations = 418 428

MPI task timing breakdown:
Section |  min time  |  avg time  |  max time  |%varavg| %total
---------------------------------------------------------------
Pair    | 2.708      | 2.708      | 2.708      |   0.0 | 99.45
Neigh   | 0          | 0          | 0          |   0.0 |  0.00
Comm    | 0.01046    | 0.01046    | 0.01046    |   0.0 |  0.38
Output  | 0.0010215  | 0.0010215  | 0.0010215  |   0.0 |  0.04
Modify  | 0          | 0          | 0          |   0.0 |  0.00
Other   |            | 0.003577   |            |       |  0.13

Nlocal:            324 ave         324 max         324 min
Histogram: 1 0 0 0 0 0 0 0 0 0
Nghost:           6930 ave        6930 max        6930 min
Histogram: 1 0 0 0 0 0 0 0 0 0
Neighs:              0 ave           0 max           0 min
Histogram: 1 0 0 0 0 0 0 0 0 0
FullNghs:        39532 ave       39532 max       39532 min
Histogram: 1 0 0 0 0 0 0 0 0 0

Total # of neighbors = 39532
Ave neighs/atom = 122.01235
Neighbor list builds = 0
Dangerous builds = 0

#write_data      fire_${name}.data

fix             3 all box/relax z 0.0 vmax 0.001
min_style       cg
minimize        0.0 1.0e-8 1000 2000
Switching to 'neigh_modify every 1 delay 0 check yes' setting during minimization
WARNING: Energy due to 3 extra global DOFs will be included in minimizer energies
 (src/min.cpp:219)
Per MPI rank memory allocation (min/avg/max) = 5.631 | 5.631 | 5.631 Mbytes
   Step          Time           Temp          Fnorm          PotEng         KinEng           Lx             Ly             Lz            Pxx            Pyy            Pzz            Pxy            Pxz            Pyz      
       418   0.418          2.4632519e-14  9.7589229e-09 -3327.3904      1.028433e-15   4.9770056      4.3102133      205.55514      110055.44      110055.44      218070.7       6.7625454e-07  1.9540221e-10 -7.6644137e-12
       420   0.42           2.4632519e-14  0.10762938    -3328.567       1.028433e-15   4.9770056      4.3102133      205.96626      106547.66      106547.66      209452.83      6.6889084e-07  7.4558747e-11 -9.5815236e-12
       430   0.43           2.4632519e-14  0.60071761    -3333.763       1.028433e-15   4.9770056      4.3102133      208.02181      89417.787      89417.787      168789.87      6.3365091e-07  1.6502326e-11 -8.0518596e-12
       440   0.44           2.4632519e-14  1.0315777     -3337.8923      1.028433e-15   4.9770056      4.3102133      210.07736      72922.316      72922.316      131863.82      6.0146331e-07 -2.4929672e-10 -9.1690355e-11
       450   0.45           2.4632519e-14  1.4171821     -3341.052       1.028433e-15   4.9770056      4.3102133      212.13291      57012.674      57012.674      98260.408      5.7238958e-07 -4.3747511e-10  9.9909433e-11
       460   0.46           2.4632519e-14  1.7747387     -3343.3273      1.028433e-15   4.9770056      4.3102133      214.18846      41654.904      41654.904      67516.775      5.4620458e-07 -4.407096e-10   1.4240603e-10
       470   0.47           2.4632519e-14  2.1158485     -3344.7912      1.028433e-15   4.9770056      4.3102133      216.24401      26829.582      26829.582      39215.769      5.2293542e-07 -3.8736196e-10  3.2528128e-10
       480   0.48           2.4632519e-14  2.4455234     -3345.506       1.028433e-15   4.9770056      4.3102133      218.29956      12528.347      12528.347      12985.75       5.0263604e-07 -5.2866147e-10  1.9356652e-10
       490   0.49           2.4632519e-14  1.190148      -3345.8778      1.028433e-15   4.9770056      4.3102133      219.76147      1728.1336      1728.1336     -2244.8396      4.9731965e-07 -3.5293889e-10 -1.2358898e-10
       500   0.5            2.4632519e-14  0.1123821     -3345.9815      1.028433e-15   4.9770056      4.3102133      219.60053      1744.4849      1744.4849     -2.2108065      5.0569627e-07  1.2906021e-10  5.6109852e-11
       510   0.51           2.4632519e-14  0.10826507    -3345.9823      1.028433e-15   4.9770056      4.3102133      219.59611      1720.5281      1720.5281     -20.785008      5.0541842e-07  1.6006356e-10  1.3697348e-10
       520   0.52           2.4632519e-14  0.11380396    -3345.9824      1.028433e-15   4.9770056      4.3102133      219.5982       1709.5721      1709.5721     -43.093483      5.0535621e-07 -8.2655296e-11 -2.3501442e-10
       530   0.53           2.4632519e-14  0.085476312   -3345.9825      1.028433e-15   4.9770056      4.3102133      219.60963      1660.2322      1660.2322     -122.9526       5.0550072e-07 -1.4725394e-10 -5.1376521e-10
       540   0.54           2.4632519e-14  0.1400668     -3345.9835      1.028433e-15   4.9770056      4.3102133      219.59924      1761.7246      1761.7246      15.971904      5.0365993e-07  6.54216e-10    1.5889074e-10
       550   0.55           2.4632519e-14  0.048875485   -3345.9841      1.028433e-15   4.9770056      4.3102133      219.59796      1759.9981      1759.9981      4.7579256      5.0575776e-07 -3.9496361e-11 -1.3833166e-10
       560   0.56           2.4632519e-14  0.022078275   -3345.9845      1.028433e-15   4.9770056      4.3102133      219.58725      1833.3064      1833.3064      129.19241      5.0504639e-07  1.531597e-10  -3.5410629e-10
       570   0.57           2.4632519e-14  0.055262918   -3345.9846      1.028433e-15   4.9770056      4.3102133      219.59551      1767.3356      1767.3356      34.550018      5.0696825e-07 -8.84751e-10    1.2156217e-09
       580   0.58           2.4632519e-14  0.053554201   -3345.9846      1.028433e-15   4.9770056      4.3102133      219.59614      1757.1246      1757.1246      20.023681      5.0778271e-07 -1.2018925e-09  2.1823808e-09
       590   0.59           2.4632519e-14  0.061855137   -3345.9846      1.028433e-15   4.9770056      4.3102133      219.59666      1759.6004      1759.6004      13.499455      5.0672319e-07 -9.2058029e-10  1.8615508e-09
       600   0.6            2.4632519e-14  0.041705246   -3345.9848      1.028433e-15   4.9770056      4.3102133      219.59685      1787.172       1787.172      -1.687857       5.0488158e-07  6.7593491e-10 -8.5544413e-10
       610   0.61           2.4632519e-14  0.06129669    -3345.985       1.028433e-15   4.9770056      4.3102133      219.60333      1711.8867      1711.8867     -33.662123      5.0642852e-07 -1.3186024e-09  1.7235624e-09
       620   0.62           2.4632519e-14  0.041480393   -3345.985       1.028433e-15   4.9770056      4.3102133      219.60334      1711.1164      1711.1164     -35.79176       5.0595984e-07 -1.3947235e-09  1.8037802e-09
       630   0.63           2.4632519e-14  0.032116358   -3345.985       1.028433e-15   4.9770056      4.3102133      219.60284      1735.8379      1735.8379     -62.732714      5.0435293e-07  4.0122275e-10 -3.9301025e-10
       640   0.64           2.4632519e-14  0.0072346444  -3345.9851      1.028433e-15   4.9770056      4.3102133      219.59836      1764.6007      1764.6007     -4.2306079      5.0520012e-07 -8.4090091e-11  5.2912188e-10
       650   0.65           2.4632519e-14  0.0086710213  -3345.9852      1.028433e-15   4.9770056      4.3102133      219.59862      1761.9729      1761.9729     -4.5453474      5.0477708e-07  1.2739992e-10 -2.5680109e-10
       660   0.66           2.4632519e-14  0.0087147569  -3345.9852      1.028433e-15   4.9770056      4.3102133      219.59846      1765.2447      1765.2447     -5.4644203      5.054325e-07  -1.3026973e-10  5.2989572e-10
       670   0.67           2.4632519e-14  0.010325794   -3345.9852      1.028433e-15   4.9770056      4.3102133      219.59873      1761.6113      1761.6113     -7.6299822      5.0449196e-07  2.301429e-10  -7.9641903e-10
       680   0.68           2.4632519e-14  0.010023143   -3345.9852      1.028433e-15   4.9770056      4.3102133      219.59928      1756.6564      1756.6564     -10.032603      5.0625074e-07  6.3359938e-11  5.8760867e-10
       690   0.69           2.4632519e-14  0.0043265504  -3345.9852      1.028433e-15   4.9770056      4.3102133      219.59833      1764.5023      1764.5023     -3.4869249      5.0510595e-07 -7.9823295e-11  4.1289864e-11
       700   0.7            2.4632519e-14  0.0060462158  -3345.9852      1.028433e-15   4.9770056      4.3102133      219.59837      1765.5915      1765.5915     -4.203441       5.04146e-07    2.4181091e-10 -5.4954966e-10
       710   0.71           2.4632519e-14  0.0042521091  -3345.9852      1.028433e-15   4.9770056      4.3102133      219.59859      1762.7031      1762.7031     -2.9389235      5.0597246e-07 -1.3132691e-10  4.1418197e-10
       720   0.72           2.4632519e-14  0.0039516454  -3345.9852      1.028433e-15   4.9770056      4.3102133      219.59844      1763.0429      1763.0429     -2.7003945      5.0345017e-07  1.299299e-10  -1.0465002e-10
       730   0.73           2.4632519e-14  0.0035556282  -3345.9852      1.028433e-15   4.9770056      4.3102133      219.5984       1764.7495      1764.7495     -2.6837781      5.0590055e-07  3.783487e-10  -4.7805227e-10
       740   0.74           2.4632519e-14  0.0017818251  -3345.9852      1.028433e-15   4.9770056      4.3102133      219.59838      1764.3951      1764.3951     -1.3338172      5.0467853e-07 -6.3851068e-11  1.9257271e-12
       750   0.75           2.4632519e-14  0.0015700697  -3345.9852      1.028433e-15   4.9770056      4.3102133      219.59834      1763.9614      1763.9614     -1.1466326      5.0528549e-07 -2.2825533e-10  1.0748202e-10
       760   0.76           2.4632519e-14  0.0026475308  -3345.9852      1.028433e-15   4.9770056      4.3102133      219.59845      1763.7155      1763.7155     -2.0157041      5.0421229e-07  5.5608184e-10 -6.0728351e-10
       770   0.77           2.4632519e-14  0.0026732768  -3345.9852      1.028433e-15   4.9770056      4.3102133      219.59831      1764.6555      1764.6555     -2.0393924      5.049634e-07  -8.5109611e-11  4.0693269e-10
       780   0.78           2.4632519e-14  0.0036215152  -3345.9852      1.028433e-15   4.9770056      4.3102133      219.59853      1763.0646      1763.0646     -2.8185475      5.0522948e-07 -4.6602563e-10  9.0225915e-11
       790   0.79           2.4632519e-14  0.0024572504  -3345.9852      1.028433e-15   4.9770056      4.3102133      219.5984       1764.3546      1764.3546     -1.9832786      5.0481775e-07  3.4825449e-10 -4.268317e-10 
       800   0.8            2.4632519e-14  0.0014741579  -3345.9852      1.028433e-15   4.9770056      4.3102133      219.59825      1764.7706      1764.7706     -1.1630943      5.0477536e-07  1.699172e-10   5.3516365e-10
       810   0.81           2.4632519e-14  0.001155171   -3345.9852      1.028433e-15   4.9770056      4.3102133      219.59825      1765.0345      1765.0345     -0.89794676     5.0429808e-07 -2.1469982e-10 -6.8425655e-10
       820   0.82           2.4632519e-14  0.00067655137 -3345.9852      1.028433e-15   4.9770056      4.3102133      219.59821      1765.3774      1765.3774     -0.48261273     5.049588e-07   7.5518763e-12  1.6876556e-10
       830   0.83           2.4632519e-14  0.00066337833 -3345.9852      1.028433e-15   4.9770056      4.3102133      219.5982       1765.257       1765.257      -0.4592647      5.0441177e-07  3.0668173e-10 -6.9212954e-11
       840   0.84           2.4632519e-14  0.00089649595 -3345.9852      1.028433e-15   4.9770056      4.3102133      219.59822      1765.2244      1765.2244     -0.63169011     5.0625545e-07 -1.0869416e-09  6.4285349e-11
       850   0.85           2.4632519e-14  0.00075938129 -3345.9852      1.028433e-15   4.9770056      4.3102133      219.59821      1765.3899      1765.3899     -0.53499994     5.0331597e-07  2.5483808e-10 -2.5797211e-10
       860   0.86           2.4632519e-14  0.00060989308 -3345.9852      1.028433e-15   4.9770056      4.3102133      219.59825      1764.9657      1764.9657     -0.42800771     5.0581118e-07  4.5734158e-10  2.1668219e-10
       870   0.87           2.4632519e-14  0.00053992937 -3345.9852      1.028433e-15   4.9770056      4.3102133      219.59823      1765.1617      1765.1617     -0.40418622     5.0235805e-07 -5.8451521e-10 -4.1799634e-11
       880   0.88           2.4632519e-14  0.00077688915 -3345.9852      1.028433e-15   4.9770056      4.3102133      219.59822      1765.2194      1765.2194     -0.56967981     5.0986628e-07  3.7589464e-10 -8.5506119e-11
       890   0.89           2.4632519e-14  0.00059143844 -3345.9852      1.028433e-15   4.9770056      4.3102133      219.59822      1765.1104      1765.1104     -0.44272211     5.0040802e-07  7.6689304e-10  3.6035666e-10
       900   0.9            2.4632519e-14  0.00063349904 -3345.9852      1.028433e-15   4.9770056      4.3102133      219.59824      1765.1171      1765.1171     -0.46390437     5.0954711e-07 -1.1084643e-09 -1.9136453e-10
       910   0.91           2.4632519e-14  0.00094265319 -3345.9852      1.028433e-15   4.9770056      4.3102133      219.59825      1765.1924      1765.1924     -0.69438204     4.9689981e-07  5.2055078e-10 -4.3585649e-10
       920   0.92           2.4632519e-14  0.00054327531 -3345.9852      1.028433e-15   4.9770056      4.3102133      219.59823      1765.101       1765.101      -0.40716412     5.0687391e-07  7.0466555e-10  7.6525048e-10
       930   0.93           2.4632519e-14  0.00026085677 -3345.9852      1.028433e-15   4.9770056      4.3102133      219.59821      1765.2284      1765.2284     -0.17498647     5.0389414e-07  4.9842383e-12  6.1547796e-12
       940   0.94           2.4632519e-14  0.00019855645 -3345.9852      1.028433e-15   4.9770056      4.3102133      219.5982       1765.33        1765.33       -0.096333515    5.0483089e-07 -3.2087925e-10 -2.8304435e-10
       950   0.95           2.4632519e-14  0.00021841711 -3345.9852      1.028433e-15   4.9770056      4.3102133      219.59821      1765.2945      1765.2945     -0.086943197    5.0651209e-07  3.8412622e-10  2.1779613e-10
       960   0.96           2.4632519e-14  0.00020811485 -3345.9852      1.028433e-15   4.9770056      4.3102133      219.5982       1765.3173      1765.3173     -0.069558128    5.0031518e-07  2.164368e-10   6.3794481e-11
       970   0.97           2.4632519e-14  0.00018451472 -3345.9852      1.028433e-15   4.9770056      4.3102133      219.5982       1765.3823      1765.3823     -0.051147368    5.0775424e-07 -4.8841766e-10  6.1038048e-11
       980   0.98           2.4632519e-14  0.00037735185 -3345.9852      1.028433e-15   4.9770056      4.3102133      219.5982       1765.3474      1765.3474     -0.090577528    5.0233547e-07  3.0222613e-10 -8.8508001e-11
       990   0.99           2.4632519e-14  0.00045137501 -3345.9852      1.028433e-15   4.9770056      4.3102133      219.59821      1765.1708      1765.1708     -0.12284185     4.9055903e-07  2.4636487e-09 -3.7260959e-10
      1000   1              2.4632519e-14  0.00037473481 -3345.9852      1.028433e-15   4.9770056      4.3102133      219.59821      1765.1876      1765.1876     -0.10367617     5.0620321e-07  1.1441093e-09  2.879153e-11 
      1010   1.01           2.4632519e-14  0.00029237654 -3345.9852      1.028433e-15   4.9770056      4.3102133      219.5982       1765.2707      1765.2707     -0.084160186    5.1495041e-07 -9.0762234e-10  2.7483168e-10
      1020   1.02           2.4632519e-14  0.00020521038 -3345.9852      1.028433e-15   4.9770056      4.3102133      219.5982       1765.3181      1765.3181     -0.058200164    5.06426e-07   -9.9443116e-10 -4.0232624e-11
      1030   1.03           2.4632519e-14  0.00021696465 -3345.9852      1.028433e-15   4.9770056      4.3102133      219.5982       1765.3593      1765.3593     -0.060263118    4.9689961e-07 -3.7359136e-10 -2.4220757e-10
      1040   1.04           2.4632519e-14  0.00022399814 -3345.9852      1.028433e-15   4.9770056      4.3102133      219.5982       1765.4117      1765.4117     -0.062671966    4.9837451e-07  7.9324918e-10  8.1862349e-11
      1050   1.05           2.4632519e-14  0.00023999337 -3345.9852      1.028433e-15   4.9770056      4.3102133      219.59819      1765.4118      1765.4118     -0.068801815    5.0905317e-07  1.570715e-09   5.8034289e-10
      1060   1.06           2.4632519e-14  0.00023324187 -3345.9852      1.028433e-15   4.9770056      4.3102133      219.5982       1765.3514      1765.3514     -0.069621754    5.1378894e-07  1.0947201e-09  3.4968967e-10
      1070   1.07           2.4632519e-14  0.00022527388 -3345.9852      1.028433e-15   4.9770056      4.3102133      219.5982       1765.2964      1765.2964     -0.068769634    5.0648098e-07  3.0430289e-10 -1.9413988e-10
      1080   1.08           2.4632519e-14  0.00022435528 -3345.9852      1.028433e-15   4.9770056      4.3102133      219.5982       1765.2935      1765.2935     -0.069844914    4.9665116e-07 -8.9312275e-10 -7.5229912e-10
      1090   1.09           2.4632519e-14  0.00018450553 -3345.9852      1.028433e-15   4.9770056      4.3102133      219.59819      1765.3392      1765.3392     -0.058208196    4.9606364e-07 -1.4349322e-09 -7.249991e-10 
      1100   1.1            2.4632519e-14  0.00017113025 -3345.9852      1.028433e-15   4.9770056      4.3102133      219.59819      1765.3794      1765.3794     -0.054065798    5.040212e-07  -9.3900043e-10 -1.5301991e-10
      1110   1.11           2.4632519e-14  0.00018484202 -3345.9852      1.028433e-15   4.9770056      4.3102133      219.59819      1765.4065      1765.4065     -0.059228046    5.1308346e-07  5.1352765e-11  5.2612041e-10
      1120   1.12           2.4632519e-14  0.00017987708 -3345.9852      1.028433e-15   4.9770056      4.3102133      219.59819      1765.4235      1765.4235     -0.05830209     5.1359699e-07  7.3627028e-10  6.3401786e-10
      1130   1.13           2.4632519e-14  0.00020429526 -3345.9852      1.028433e-15   4.9770056      4.3102133      219.59819      1765.4199      1765.4199     -0.067004965    5.0310214e-07  1.5312942e-09  5.9274686e-10
      1140   1.14           2.4632519e-14  0.0001975845  -3345.9852      1.028433e-15   4.9770056      4.3102133      219.59819      1765.4034      1765.4034     -0.066624175    4.9184063e-07  1.6240312e-09 -2.0265463e-10
      1150   1.15           2.4632519e-14  0.00016286146 -3345.9852      1.028433e-15   4.9770056      4.3102133      219.59819      1765.3875      1765.3875     -0.055880022    4.9362816e-07  8.1363926e-10 -5.6316237e-10
      1160   1.16           2.4632519e-14  0.00017738269 -3345.9852      1.028433e-15   4.9770056      4.3102133      219.5982       1765.3683      1765.3683     -0.061959567    5.0588787e-07 -2.4007418e-10 -4.315709e-10 
      1170   1.17           2.4632519e-14  0.00014832317 -3345.9852      1.028433e-15   4.9770056      4.3102133      219.5982       1765.3733      1765.3733     -0.053181563    5.1681921e-07 -9.6248676e-10 -3.4342162e-11
      1180   1.18           2.4632519e-14  0.00010874993 -3345.9852      1.028433e-15   4.9770056      4.3102133      219.59819      1765.3919      1765.3919     -0.039192726    5.1390193e-07 -1.2302386e-09  5.0031189e-12
      1190   1.19           2.4632519e-14  0.00011922809 -3345.9852      1.028433e-15   4.9770056      4.3102133      219.59819      1765.4         1765.4        -0.043052679    5.0227688e-07 -8.2779905e-10 -6.9817107e-11
      1200   1.2            2.4632519e-14  0.0001257592  -3345.9852      1.028433e-15   4.9770056      4.3102133      219.59819      1765.3994      1765.3994     -0.046124052    4.8963322e-07  3.6758763e-10 -1.8832494e-10
      1210   1.21           2.4632519e-14  0.00011181239 -3345.9852      1.028433e-15   4.9770056      4.3102133      219.59819      1765.3924      1765.3924     -0.041766222    4.9097549e-07  1.1316488e-09 -3.6972104e-10
      1220   1.22           2.4632519e-14  9.775007e-05  -3345.9852      1.028433e-15   4.9770056      4.3102133      219.59819      1765.3874      1765.3874     -0.036908072    5.0356084e-07  1.0885654e-09  2.5563105e-11
      1230   1.23           2.4632519e-14  0.00010606904 -3345.9852      1.028433e-15   4.9770056      4.3102133      219.59819      1765.387       1765.387      -0.040094762    5.1534676e-07  6.8404905e-10  5.0119922e-10
      1240   1.24           2.4632519e-14  0.00015586265 -3345.9852      1.028433e-15   4.9770056      4.3102133      219.59819      1765.3896      1765.3896     -0.059577354    5.1978016e-07 -6.0214894e-10  8.1014653e-10
      1250   1.25           2.4632519e-14  0.00018810493 -3345.9852      1.028433e-15   4.9770056      4.3102133      219.59819      1765.4051      1765.4051     -0.073789275    5.0914108e-07 -2.5175316e-09  2.5848188e-10
      1260   1.26           2.4632519e-14  0.0002077388  -3345.9852      1.028433e-15   4.9770056      4.3102133      219.5982       1765.4187      1765.4187     -0.084068819    4.9075693e-07 -3.3569227e-09  4.9445916e-11
      1270   1.27           2.4632519e-14  0.00023643026 -3345.9852      1.028433e-15   4.9770056      4.3102133      219.5982       1765.4252      1765.4252     -0.099538557    4.8121966e-07 -2.7802991e-09 -7.0124844e-10
      1280   1.28           2.4632519e-14  0.00022911847 -3345.9852      1.028433e-15   4.9770056      4.3102133      219.59819      1765.4286      1765.4286     -0.10027164     4.9234162e-07 -1.326525e-09  -8.5862957e-10
      1290   1.29           2.4632519e-14  0.00024789145 -3345.9852      1.028433e-15   4.9770056      4.3102133      219.59819      1765.3981      1765.3981     -0.11305068     5.1568961e-07  9.0282693e-10 -4.1238914e-10
      1300   1.3            2.4632519e-14  0.00021303739 -3345.9852      1.028433e-15   4.9770056      4.3102133      219.5982       1765.3504      1765.3504     -0.10203754     5.285719e-07   3.1254199e-09 -2.3714782e-10
      1310   1.31           2.4632519e-14  0.0001876345  -3345.9852      1.028433e-15   4.9770056      4.3102133      219.5982       1765.3092      1765.3092     -0.093468024    5.1660216e-07  3.5167959e-09  3.7759386e-11
      1320   1.32           2.4632519e-14  0.0002507561  -3345.9852      1.028433e-15   4.9770056      4.3102133      219.59821      1765.2506      1765.2506     -0.13088379     4.8349623e-07  1.6232759e-09  2.3010569e-10
      1330   1.33           2.4632519e-14  0.00022460638 -3345.9852      1.028433e-15   4.9770056      4.3102133      219.59821      1765.2497      1765.2497     -0.12413101     4.6187581e-07 -1.9491017e-09  8.8621275e-10
      1340   1.34           2.4632519e-14  0.00020775763 -3345.9852      1.028433e-15   4.9770056      4.3102133      219.5982       1765.2868      1765.2868     -0.11974336     4.8646911e-07 -3.7047621e-09  1.1456764e-09
      1350   1.35           2.4632519e-14  0.00020046604 -3345.9852      1.028433e-15   4.9770056      4.3102133      219.5982       1765.3373      1765.3373     -0.12193701     5.3457186e-07 -3.6804073e-09  7.7950476e-10
      1360   1.36           2.4632519e-14  0.00013162464 -3345.9852      1.028433e-15   4.9770056      4.3102133      219.5982       1765.3737      1765.3737     -0.083917302    5.3813952e-07 -1.9848599e-09 -2.4996713e-11
      1370   1.37           2.4632519e-14  0.00014657336 -3345.9852      1.028433e-15   4.9770056      4.3102133      219.5982       1765.3497      1765.3497     -0.096923514    4.9706756e-07  8.2609982e-10 -1.2814402e-09
      1380   1.38           2.4632519e-14  0.00011235894 -3345.9852      1.028433e-15   4.9770056      4.3102133      219.5982       1765.3294      1765.3294     -0.077308894    4.6084695e-07  2.961091e-09  -1.8371451e-09
      1390   1.39           2.4632519e-14  8.4335601e-05 -3345.9852      1.028433e-15   4.9770056      4.3102133      219.5982       1765.3268      1765.3268     -0.058001979    4.8502338e-07  2.2273506e-09 -5.0446539e-10
      1400   1.4            2.4632519e-14  6.8095629e-05 -3345.9852      1.028433e-15   4.9770056      4.3102133      219.59819      1765.3633      1765.3633     -0.0036222291   4.7669156e-07  3.7714075e-10 -2.8880267e-10
      1410   1.41           2.4632519e-14  9.6365694e-05 -3345.9852      1.028433e-15   4.9770056      4.3102133      219.59819      1765.378       1765.378      -0.010368774    5.4955374e-07  1.192819e-09   3.0581327e-10
      1418   1.418          2.4632519e-14  0.00010544638 -3345.9852      1.028433e-15   4.9770056      4.3102133      219.59819      1765.4045      1765.4045     -0.018286717    4.5375878e-07 -7.4831553e-10 -9.6994425e-10
Loop time of 12.6864 on 2 procs for 1000 steps with 324 atoms

103.0% CPU use with 1 MPI tasks x 2 OpenMP threads

Minimization stats:
  Stopping criterion = max iterations
  Energy initial, next-to-last, final = 
     -3327.39044384725  -3345.98518356276  -3345.98518356277
  Force two-norm initial, final = 600.18095 0.00011684166
  Force max component initial, final = 600.18095 5.0329269e-05
  Final line search alpha, max atom move = 1 5.0329269e-05
  Iterations, force evaluations = 1000 1928

MPI task timing breakdown:
Section |  min time  |  avg time  |  max time  |%varavg| %total
---------------------------------------------------------------
Pair    | 12.497     | 12.497     | 12.497     |   0.0 | 98.51
Neigh   | 0.013859   | 0.013859   | 0.013859   |   0.0 |  0.11
Comm    | 0.046042   | 0.046042   | 0.046042   |   0.0 |  0.36
Output  | 0.0022195  | 0.0022195  | 0.0022195  |   0.0 |  0.02
Modify  | 0          | 0          | 0          |   0.0 |  0.00
Other   |            | 0.1273     |            |       |  1.00

Nlocal:            324 ave         324 max         324 min
Histogram: 1 0 0 0 0 0 0 0 0 0
Nghost:           6880 ave        6880 max        6880 min
Histogram: 1 0 0 0 0 0 0 0 0 0
Neighs:              0 ave           0 max           0 min
Histogram: 1 0 0 0 0 0 0 0 0 0
FullNghs:        36876 ave       36876 max       36876 min
Histogram: 1 0 0 0 0 0 0 0 0 0

Total # of neighbors = 36876
Ave neighs/atom = 113.81481
Neighbor list builds = 17
Dangerous builds = 0
unfix           3
min_style       fire
minimize        0.0 1.0e-8 2000 4000
Switching to 'neigh_modify every 1 delay 0 check yes' setting during minimization
  Parameters for fire:
    dmax  delaystep dtgrow dtshrink alpha0 alphashrink tmax tmin   integrator   halfstepback   abcfire  
     0.1     20      1.1     0.5     0.25     0.99      10  0.02 eulerimplicit      yes          no     
Per MPI rank memory allocation (min/avg/max) = 4.507 | 4.507 | 4.507 Mbytes
   Step          Time           Temp          Fnorm          PotEng         KinEng           Lx             Ly             Lz            Pxx            Pyy            Pzz            Pxy            Pxz            Pyz      
      1418   1.418          0              0.00010544638 -3345.9852      0              4.9770056      4.3102133      219.59819      1765.4045      1765.4045     -0.018286717    4.5376293e-07 -7.1452087e-10 -9.4862907e-10
      1420   1.42           4.8251936e-11  0.00010507907 -3345.9852      2.0145679e-12  4.9770056      4.3102133      219.59819      1765.4045      1765.4045     -0.018323528    4.5392424e-07 -7.3881899e-10 -9.2210313e-10
      1430   1.43           1.6118924e-09  9.781376e-05  -3345.9852      6.7298163e-11  4.9770056      4.3102133      219.59819      1765.4038      1765.4038     -0.018839869    4.5802242e-07 -5.8115269e-10 -9.5244306e-10
      1440   1.584          5.1119977e-09  8.4613195e-05 -3345.9852      2.1343115e-10  4.9770056      4.3102133      219.59819      1765.402       1765.402      -0.019421679    4.6879147e-07 -4.3887251e-10 -8.2400227e-10
      1450   4.1370192      1.3186504e-08  6.0910425e-05 -3345.9852      5.5055007e-10  4.9770056      4.3102133      219.59819      1765.3964      1765.3964     -0.018856905    4.9534727e-07 -3.2965485e-10 -2.0313486e-10
      1460   10.804365      2.9678264e-08  2.7343506e-05 -3345.9852      1.239098e-09   4.9770056      4.3102133      219.59819      1765.3836      1765.3836     -0.012194656    5.0230625e-07  1.1830008e-10  3.3679287e-11
      1470   14.7           2.1000944e-08  1.3291272e-05 -3345.9852      8.7681096e-10  4.9770056      4.3102133      219.59819      1765.3856      1765.3856     -0.0034704124   5.047381e-07   7.5292047e-11  1.6808552e-10
      1480   14.8           2.3428601e-08  7.7612123e-06 -3345.9852      9.7816814e-10  4.9770056      4.3102133      219.59819      1765.3854      1765.3854     -0.0064297585   5.0417692e-07 -3.6135418e-11 -2.5204187e-11
      1490   14.9           2.7372541e-08  4.5126679e-06 -3345.9852      1.1428317e-09  4.9770056      4.3102133      219.59819      1765.3852      1765.3852     -0.0095212131   5.0385227e-07 -2.7865699e-11 -7.3367135e-11
      1500   15             1.3682895e-08  2.3587197e-06 -3345.9852      5.7127492e-10  4.9770056      4.3102133      219.59819      1765.3857      1765.3857     -0.012381097    5.03991e-07   -7.1874262e-11 -4.568924e-12 
      1510   7.55           4.9430051e-14  1.1453425e-06 -3345.9852      2.0637554e-15  4.9770056      4.3102133      219.59819      1765.3857      1765.3857     -0.013926176    5.0397801e-07 -1.8071643e-10 -1.4363671e-10
      1520   7.6            3.8100288e-13  2.8866583e-07 -3345.9852      1.5907262e-14  4.9770056      4.3102133      219.59819      1765.3856      1765.3856     -0.014315056    5.0393987e-07  3.2133238e-11  3.1340288e-12
      1530   7.65           4.9665474e-13  1.0105425e-07 -3345.9852      2.0735845e-14  4.9770056      4.3102133      219.59819      1765.3856      1765.3856     -0.014263056    5.0395581e-07 -1.2724914e-11  5.0786382e-12
      1540   15.4           3.6856779e-13  2.5902726e-08 -3345.9852      1.5388084e-14  4.9770056      4.3102133      219.59819      1765.3856      1765.3856     -0.014224707    5.0393987e-07  2.7753149e-12  1.5883486e-10
      1549   7.745          2.1612408e-18  8.4578627e-09 -3345.9852      9.0234021e-20  4.9770056      4.3102133      219.59819      1765.3856      1765.3856     -0.01420982     5.0393481e-07  9.175531e-12  -9.481382e-11 
Loop time of 0.8711 on 2 procs for 131 steps with 324 atoms

102.4% CPU use with 1 MPI tasks x 2 OpenMP threads

Minimization stats:
  Stopping criterion = force tolerance
  Energy initial, next-to-last, final = 
     -3345.98518356277  -3345.98518356535  -3345.98518356535
  Force two-norm initial, final = 0.00010544638 8.4578627e-09
  Force max component initial, final = 1.3698672e-05 1.4748915e-09
  Final line search alpha, max atom move = 0 0
  Iterations, force evaluations = 131 134

MPI task timing breakdown:
Section |  min time  |  avg time  |  max time  |%varavg| %total
---------------------------------------------------------------
Pair    | 0.86598    | 0.86598    | 0.86598    |   0.0 | 99.41
Neigh   | 0          | 0          | 0          |   0.0 |  0.00
Comm    | 0.0036917  | 0.0036917  | 0.0036917  |   0.0 |  0.42
Output  | 0.0002152  | 0.0002152  | 0.0002152  |   0.0 |  0.02
Modify  | 0          | 0          | 0          |   0.0 |  0.00
Other   |            | 0.001217   |            |       |  0.14

Nlocal:            324 ave         324 max         324 min
Histogram: 1 0 0 0 0 0 0 0 0 0
Nghost:           6880 ave        6880 max        6880 min
Histogram: 1 0 0 0 0 0 0 0 0 0
Neighs:              0 ave           0 max           0 min
Histogram: 1 0 0 0 0 0 0 0 0 0
FullNghs:        36876 ave       36876 max       36876 min
Histogram: 1 0 0 0 0 0 0 0 0 0

Total # of neighbors = 36876
Ave neighs/atom = 113.81481
Neighbor list builds = 0
Dangerous builds = 0

fix             3 all box/relax z 0.0 vmax 0.001
min_style       cg
minimize        0.0 1.0e-8 1000 2000
Switching to 'neigh_modify every 1 delay 0 check yes' setting during minimization
WARNING: Energy due to 3 extra global DOFs will be included in minimizer energies
 (src/min.cpp:219)
Per MPI rank memory allocation (min/avg/max) = 5.632 | 5.632 | 5.632 Mbytes
   Step          Time           Temp          Fnorm          PotEng         KinEng           Lx             Ly             Lz            Pxx            Pyy            Pzz            Pxy            Pxz            Pyz      
      1549   1.549          2.1612408e-18  8.4580386e-09 -3345.9852      9.0234021e-20  4.9770056      4.3102133      219.59819      1765.3856      1765.3856     -0.01420982     5.0392394e-07  1.0799185e-11 -9.7438097e-11
      1550   1.55           2.1612408e-18  2.6683348e-07 -3345.9852      9.0234021e-20  4.9770056      4.3102133      219.59819      1765.3934      1765.3934     -2.0612197e-06  5.0399478e-07 -5.233451e-11  -1.5392614e-10
      1560   1.56           2.1612408e-18  1.0630197e-08 -3345.9852      9.0234021e-20  4.9770056      4.3102133      219.59819      1765.3936      1765.3936      5.3814624e-06  5.0390159e-07 -3.8363537e-11  1.6700977e-10
      1562   1.562          2.1612408e-18  6.1973369e-09 -3345.9852      9.0234021e-20  4.9770056      4.3102133      219.59819      1765.3936      1765.3936      2.1739136e-08  5.0394795e-07  2.6771405e-11  1.0110076e-10
Loop time of 0.182373 on 2 procs for 13 steps with 324 atoms

98.4% CPU use with 1 MPI tasks x 2 OpenMP threads

Minimization stats:
  Stopping criterion = force tolerance
  Energy initial, next-to-last, final = 
     -3345.98518356535  -3345.98518356535  -3345.98518356535
  Force two-norm initial, final = 4.1780524e-05 6.1976665e-09
  Force max component initial, final = 4.1780523e-05 1.0242752e-09
  Final line search alpha, max atom move = 1 1.0242752e-09
  Iterations, force evaluations = 13 26

MPI task timing breakdown:
Section |  min time  |  avg time  |  max time  |%varavg| %total
---------------------------------------------------------------
Pair    | 0.18       | 0.18       | 0.18       |   0.0 | 98.70
Neigh   | 0          | 0          | 0          |   0.0 |  0.00
Comm    | 0.00061718 | 0.00061718 | 0.00061718 |   0.0 |  0.34
Output  | 3.4732e-05 | 3.4732e-05 | 3.4732e-05 |   0.0 |  0.02
Modify  | 0          | 0          | 0          |   0.0 |  0.00
Other   |            | 0.001719   |            |       |  0.94

Nlocal:            324 ave         324 max         324 min
Histogram: 1 0 0 0 0 0 0 0 0 0
Nghost:           6880 ave        6880 max        6880 min
Histogram: 1 0 0 0 0 0 0 0 0 0
Neighs:              0 ave           0 max           0 min
Histogram: 1 0 0 0 0 0 0 0 0 0
FullNghs:        36876 ave       36876 max       36876 min
Histogram: 1 0 0 0 0 0 0 0 0 0

Total # of neighbors = 36876
Ave neighs/atom = 113.81481
Neighbor list builds = 0
Dangerous builds = 0
unfix           3
min_style       fire
minimize        0.0 1.0e-8 2000 4000
Switching to 'neigh_modify every 1 delay 0 check yes' setting during minimization
  Parameters for fire:
    dmax  delaystep dtgrow dtshrink alpha0 alphashrink tmax tmin   integrator   halfstepback   abcfire  
     0.1     20      1.1     0.5     0.25     0.99      10  0.02 eulerimplicit      yes          no     
Per MPI rank memory allocation (min/avg/max) = 4.507 | 4.507 | 4.507 Mbytes
   Step          Time           Temp          Fnorm          PotEng         KinEng           Lx             Ly             Lz            Pxx            Pyy            Pzz            Pxy            Pxz            Pyz      
      1562   1.562          0              6.1974401e-09 -3345.9852      0              4.9770056      4.3102133      219.59819      1765.3936      1765.3936      2.1501101e-08  5.0384827e-07  8.8432484e-11  4.1006694e-11
      1563   1.563          5.9395592e-20  6.1893505e-09 -3345.9852      2.479827e-21   4.9770056      4.3102133      219.59819      1765.3936      1765.3936      2.207746e-08   5.0380069e-07  6.8420009e-11  9.6909466e-11
Loop time of 0.0187096 on 2 procs for 1 steps with 324 atoms

98.8% CPU use with 1 MPI tasks x 2 OpenMP threads

Minimization stats:
  Stopping criterion = force tolerance
  Energy initial, next-to-last, final = 
     -3345.98518356535  -3345.98518356535  -3345.98518356535
  Force two-norm initial, final = 6.1974401e-09 6.1893505e-09
  Force max component initial, final = 1.0243286e-09 1.0228299e-09
  Final line search alpha, max atom move = 0 0
  Iterations, force evaluations = 1 2

MPI task timing breakdown:
Section |  min time  |  avg time  |  max time  |%varavg| %total
---------------------------------------------------------------
Pair    | 0.018612   | 0.018612   | 0.018612   |   0.0 | 99.48
Neigh   | 0          | 0          | 0          |   0.0 |  0.00
Comm    | 6.2289e-05 | 6.2289e-05 | 6.2289e-05 |   0.0 |  0.33
Output  | 0          | 0          | 0          |   0.0 |  0.00
Modify  | 0          | 0          | 0          |   0.0 |  0.00
Other   |            | 3.554e-05  |            |       |  0.19

Nlocal:            324 ave         324 max         324 min
Histogram: 1 0 0 0 0 0 0 0 0 0
Nghost:           6880 ave        6880 max        6880 min
Histogram: 1 0 0 0 0 0 0 0 0 0
Neighs:              0 ave           0 max           0 min
Histogram: 1 0 0 0 0 0 0 0 0 0
FullNghs:        36876 ave       36876 max       36876 min
Histogram: 1 0 0 0 0 0 0 0 0 0

Total # of neighbors = 36876
Ave neighs/atom = 113.81481
Neighbor list builds = 0
Dangerous builds = 0

fix             3 all box/relax z 0.0 vmax 0.001
min_style       cg
minimize        0.0 1.0e-8 1000 2000
Switching to 'neigh_modify every 1 delay 0 check yes' setting during minimization
WARNING: Energy due to 3 extra global DOFs will be included in minimizer energies
 (src/min.cpp:219)
Per MPI rank memory allocation (min/avg/max) = 5.632 | 5.632 | 5.632 Mbytes
   Step          Time           Temp          Fnorm          PotEng         KinEng           Lx             Ly             Lz            Pxx            Pyy            Pzz            Pxy            Pxz            Pyz      
      1563   1.563          5.9395592e-20  6.1895827e-09 -3345.9852      2.479827e-21   4.9770056      4.3102133      219.59819      1765.3936      1765.3936      2.2081689e-08  5.0376988e-07  4.8596331e-11 -4.1931799e-11
      1565   1.565          5.9395592e-20  5.5486286e-09 -3345.9852      2.479827e-21   4.9770056      4.3102133      219.59819      1765.3936      1765.3936      2.304543e-07   5.039256e-07   6.8004656e-11  3.324714e-11 
Loop time of 0.0327982 on 2 procs for 2 steps with 324 atoms

105.7% CPU use with 1 MPI tasks x 2 OpenMP threads

Minimization stats:
  Stopping criterion = force tolerance
  Energy initial, next-to-last, final = 
     -3345.98518356535  -3345.98518356535  -3345.98518356535
  Force two-norm initial, final = 6.1899232e-09 5.5898492e-09
  Force max component initial, final = 1.0228206e-09 1.2442575e-09
  Final line search alpha, max atom move = 1 1.2442575e-09
  Iterations, force evaluations = 2 4

MPI task timing breakdown:
Section |  min time  |  avg time  |  max time  |%varavg| %total
---------------------------------------------------------------
Pair    | 0.03243    | 0.03243    | 0.03243    |   0.0 | 98.88
Neigh   | 0          | 0          | 0          |   0.0 |  0.00
Comm    | 9.6776e-05 | 9.6776e-05 | 9.6776e-05 |   0.0 |  0.30
Output  | 0          | 0          | 0          |   0.0 |  0.00
Modify  | 0          | 0          | 0          |   0.0 |  0.00
Other   |            | 0.000271   |            |       |  0.83

Nlocal:            324 ave         324 max         324 min
Histogram: 1 0 0 0 0 0 0 0 0 0
Nghost:           6880 ave        6880 max        6880 min
Histogram: 1 0 0 0 0 0 0 0 0 0
Neighs:              0 ave           0 max           0 min
Histogram: 1 0 0 0 0 0 0 0 0 0
FullNghs:        36876 ave       36876 max       36876 min
Histogram: 1 0 0 0 0 0 0 0 0 0

Total # of neighbors = 36876
Ave neighs/atom = 113.81481
Neighbor list builds = 0
Dangerous builds = 0
unfix           3
min_style       fire
minimize        0.0 1.0e-8 2000 4000
Switching to 'neigh_modify every 1 delay 0 check yes' setting during minimization
  Parameters for fire:
    dmax  delaystep dtgrow dtshrink alpha0 alphashrink tmax tmin   integrator   halfstepback   abcfire  
     0.1     20      1.1     0.5     0.25     0.99      10  0.02 eulerimplicit      yes          no     
Per MPI rank memory allocation (min/avg/max) = 4.507 | 4.507 | 4.507 Mbytes
   Step          Time           Temp          Fnorm          PotEng         KinEng           Lx             Ly             Lz            Pxx            Pyy            Pzz            Pxy            Pxz            Pyz      
      1565   1.565          0              5.548385e-09  -3345.9852      0              4.9770056      4.3102133      219.59819      1765.3936      1765.3936      2.3004589e-07  5.0391956e-07  4.1988438e-11  7.3121053e-11
      1566   1.566          3.2799615e-20  5.541115e-09  -3345.9852      1.3694176e-21  4.9770056      4.3102133      219.59819      1765.3936      1765.3936      2.3038663e-07  5.0386232e-07  1.1195658e-10  2.2882188e-11
Loop time of 0.019877 on 2 procs for 1 steps with 324 atoms

105.5% CPU use with 1 MPI tasks x 2 OpenMP threads

Minimization stats:
  Stopping criterion = force tolerance
  Energy initial, next-to-last, final = 
     -3345.98518356535  -3345.98518356535  -3345.98518356535
  Force two-norm initial, final = 5.548385e-09 5.541115e-09
  Force max component initial, final = 1.244283e-09 1.242492e-09
  Final line search alpha, max atom move = 0 0
  Iterations, force evaluations = 1 2

MPI task timing breakdown:
Section |  min time  |  avg time  |  max time  |%varavg| %total
---------------------------------------------------------------
Pair    | 0.019779   | 0.019779   | 0.019779   |   0.0 | 99.51
Neigh   | 0          | 0          | 0          |   0.0 |  0.00
Comm    | 6.1552e-05 | 6.1552e-05 | 6.1552e-05 |   0.0 |  0.31
Output  | 0          | 0          | 0          |   0.0 |  0.00
Modify  | 0          | 0          | 0          |   0.0 |  0.00
Other   |            | 3.61e-05   |            |       |  0.18

Nlocal:            324 ave         324 max         324 min
Histogram: 1 0 0 0 0 0 0 0 0 0
Nghost:           6880 ave        6880 max        6880 min
Histogram: 1 0 0 0 0 0 0 0 0 0
Neighs:              0 ave           0 max           0 min
Histogram: 1 0 0 0 0 0 0 0 0 0
FullNghs:        36876 ave       36876 max       36876 min
Histogram: 1 0 0 0 0 0 0 0 0 0

Total # of neighbors = 36876
Ave neighs/atom = 113.81481
Neighbor list builds = 0
Dangerous builds = 0

fix             3 all box/relax z 0.0 vmax 0.001
min_style       cg
minimize        0.0 1.0e-8 1000 2000
Switching to 'neigh_modify every 1 delay 0 check yes' setting during minimization
WARNING: Energy due to 3 extra global DOFs will be included in minimizer energies
 (src/min.cpp:219)
Per MPI rank memory allocation (min/avg/max) = 5.632 | 5.632 | 5.632 Mbytes
   Step          Time           Temp          Fnorm          PotEng         KinEng           Lx             Ly             Lz            Pxx            Pyy            Pzz            Pxy            Pxz            Pyz      
      1566   1.566          3.2799615e-20  5.5409249e-09 -3345.9852      1.3694176e-21  4.9770056      4.3102133      219.59819      1765.3936      1765.3936      2.3038663e-07  5.0389758e-07  3.9873913e-11  1.2298232e-10
      1568   1.568          3.2799615e-20  4.1306536e-09 -3345.9852      1.3694176e-21  4.9770056      4.3102133      219.59819      1765.3936      1765.3936      1.9470552e-08  5.039102e-07  -4.9578075e-11  7.2498023e-11
Loop time of 0.0316671 on 2 procs for 2 steps with 324 atoms

105.2% CPU use with 1 MPI tasks x 2 OpenMP threads

Minimization stats:
  Stopping criterion = force tolerance
  Energy initial, next-to-last, final = 
     -3345.98518356535  -3345.98518356535  -3345.98518356535
  Force two-norm initial, final = 5.5821783e-09 4.1310503e-09
  Force max component initial, final = 1.2424982e-09 8.3138513e-10
  Final line search alpha, max atom move = 1 8.3138513e-10
  Iterations, force evaluations = 2 4

MPI task timing breakdown:
Section |  min time  |  avg time  |  max time  |%varavg| %total
---------------------------------------------------------------
Pair    | 0.031301   | 0.031301   | 0.031301   |   0.0 | 98.85
Neigh   | 0          | 0          | 0          |   0.0 |  0.00
Comm    | 9.7749e-05 | 9.7749e-05 | 9.7749e-05 |   0.0 |  0.31
Output  | 0          | 0          | 0          |   0.0 |  0.00
Modify  | 0          | 0          | 0          |   0.0 |  0.00
Other   |            | 0.0002679  |            |       |  0.85

Nlocal:            324 ave         324 max         324 min
Histogram: 1 0 0 0 0 0 0 0 0 0
Nghost:           6880 ave        6880 max        6880 min
Histogram: 1 0 0 0 0 0 0 0 0 0
Neighs:              0 ave           0 max           0 min
Histogram: 1 0 0 0 0 0 0 0 0 0
FullNghs:        36876 ave       36876 max       36876 min
Histogram: 1 0 0 0 0 0 0 0 0 0

Total # of neighbors = 36876
Ave neighs/atom = 113.81481
Neighbor list builds = 0
Dangerous builds = 0
unfix           3
min_style       fire
minimize        0.0 1.0e-8 2000 4000
Switching to 'neigh_modify every 1 delay 0 check yes' setting during minimization
  Parameters for fire:
    dmax  delaystep dtgrow dtshrink alpha0 alphashrink tmax tmin   integrator   halfstepback   abcfire  
     0.1     20      1.1     0.5     0.25     0.99      10  0.02 eulerimplicit      yes          no     
Per MPI rank memory allocation (min/avg/max) = 4.507 | 4.507 | 4.507 Mbytes
   Step          Time           Temp          Fnorm          PotEng         KinEng           Lx             Ly             Lz            Pxx            Pyy            Pzz            Pxy            Pxz            Pyz      
      1568   1.568          0              4.1308863e-09 -3345.9852      0              4.9770056      4.3102133      219.59819      1765.3936      1765.3936      1.9593195e-08  5.0400172e-07 -7.0874369e-11  2.588406e-11 
      1569   1.569          2.1121465e-20  4.1265096e-09 -3345.9852      8.8184285e-22  4.9770056      4.3102133      219.59819      1765.3936      1765.3936      1.9820355e-08  5.0397635e-07 -1.1803584e-10  1.9785919e-11
Loop time of 0.0187892 on 2 procs for 1 steps with 324 atoms

104.2% CPU use with 1 MPI tasks x 2 OpenMP threads

Minimization stats:
  Stopping criterion = force tolerance
  Energy initial, next-to-last, final = 
     -3345.98518356535  -3345.98518356535  -3345.98518356535
  Force two-norm initial, final = 4.1308863e-09 4.1265096e-09
  Force max component initial, final = 8.3159607e-10 8.3089363e-10
  Final line search alpha, max atom move = 0 0
  Iterations, force evaluations = 1 2

MPI task timing breakdown:
Section |  min time  |  avg time  |  max time  |%varavg| %total
---------------------------------------------------------------
Pair    | 0.018692   | 0.018692   | 0.018692   |   0.0 | 99.48
Neigh   | 0          | 0          | 0          |   0.0 |  0.00
Comm    | 6.187e-05  | 6.187e-05  | 6.187e-05  |   0.0 |  0.33
Output  | 0          | 0          | 0          |   0.0 |  0.00
Modify  | 0          | 0          | 0          |   0.0 |  0.00
Other   |            | 3.526e-05  |            |       |  0.19

Nlocal:            324 ave         324 max         324 min
Histogram: 1 0 0 0 0 0 0 0 0 0
Nghost:           6880 ave        6880 max        6880 min
Histogram: 1 0 0 0 0 0 0 0 0 0
Neighs:              0 ave           0 max           0 min
Histogram: 1 0 0 0 0 0 0 0 0 0
FullNghs:        36876 ave       36876 max       36876 min
Histogram: 1 0 0 0 0 0 0 0 0 0

Total # of neighbors = 36876
Ave neighs/atom = 113.81481
Neighbor list builds = 0
Dangerous builds = 0

fix             3 all box/relax z 0.0 vmax 0.001
min_style       cg
minimize        0.0 1.0e-8 1000 2000
Switching to 'neigh_modify every 1 delay 0 check yes' setting during minimization
WARNING: Energy due to 3 extra global DOFs will be included in minimizer energies
 (src/min.cpp:219)
Per MPI rank memory allocation (min/avg/max) = 5.632 | 5.632 | 5.632 Mbytes
   Step          Time           Temp          Fnorm          PotEng         KinEng           Lx             Ly             Lz            Pxx            Pyy            Pzz            Pxy            Pxz            Pyz      
      1569   1.569          2.1121465e-20  4.1269195e-09 -3345.9852      8.8184285e-22  4.9770056      4.3102133      219.59819      1765.3936      1765.3936      1.9688046e-08  5.0401486e-07 -2.526103e-10   5.6506923e-11
      1570   1.57           2.1121465e-20  3.8238879e-09 -3345.9852      8.8184285e-22  4.9770056      4.3102133      219.59819      1765.3936      1765.3936     -1.132143e-05   5.0397325e-07 -1.2101884e-10  9.8552e-11   
      1571   1.571          2.1121465e-20  4.2752293e-09 -3345.9852      8.8184285e-22  4.9770056      4.3102133      219.59819      1765.3936      1765.3936      1.6563744e-07  5.0392303e-07 -3.0094231e-11  1.2628627e-10
Loop time of 0.0323584 on 2 procs for 2 steps with 324 atoms

102.9% CPU use with 1 MPI tasks x 2 OpenMP threads

Minimization stats:
  Stopping criterion = force tolerance
  Energy initial, next-to-last, final = 
     -3345.98518356535  -3345.98518356535  -3345.98518356535
  Force two-norm initial, final = 4.1273254e-09 4.3028794e-09
  Force max component initial, final = 8.3080448e-10 9.3491048e-10
  Final line search alpha, max atom move = 1 9.3491048e-10
  Iterations, force evaluations = 2 4

MPI task timing breakdown:
Section |  min time  |  avg time  |  max time  |%varavg| %total
---------------------------------------------------------------
Pair    | 0.03198    | 0.03198    | 0.03198    |   0.0 | 98.83
Neigh   | 0          | 0          | 0          |   0.0 |  0.00
Comm    | 9.5255e-05 | 9.5255e-05 | 9.5255e-05 |   0.0 |  0.29
Output  | 1.7126e-05 | 1.7126e-05 | 1.7126e-05 |   0.0 |  0.05
Modify  | 0          | 0          | 0          |   0.0 |  0.00
Other   |            | 0.0002663  |            |       |  0.82

Nlocal:            324 ave         324 max         324 min
Histogram: 1 0 0 0 0 0 0 0 0 0
Nghost:           6880 ave        6880 max        6880 min
Histogram: 1 0 0 0 0 0 0 0 0 0
Neighs:              0 ave           0 max           0 min
Histogram: 1 0 0 0 0 0 0 0 0 0
FullNghs:        36876 ave       36876 max       36876 min
Histogram: 1 0 0 0 0 0 0 0 0 0

Total # of neighbors = 36876
Ave neighs/atom = 113.81481
Neighbor list builds = 0
Dangerous builds = 0
unfix           3
min_style       fire
minimize        0.0 1.0e-8 2000 4000
Switching to 'neigh_modify every 1 delay 0 check yes' setting during minimization
  Parameters for fire:
    dmax  delaystep dtgrow dtshrink alpha0 alphashrink tmax tmin   integrator   halfstepback   abcfire  
     0.1     20      1.1     0.5     0.25     0.99      10  0.02 eulerimplicit      yes          no     
Per MPI rank memory allocation (min/avg/max) = 4.507 | 4.507 | 4.507 Mbytes
   Step          Time           Temp          Fnorm          PotEng         KinEng           Lx             Ly             Lz            Pxx            Pyy            Pzz            Pxy            Pxz            Pyz      
      1571   1.571          0              4.2751346e-09 -3345.9852      0              4.9770056      4.3102133      219.59819      1765.3936      1765.3936      1.6569302e-07  5.0399734e-07 -4.7916662e-11  1.0572628e-10
      1572   1.572          1.8514195e-20  4.2702849e-09 -3345.9852      7.7298663e-22  4.9770056      4.3102133      219.59819      1765.3936      1765.3936      1.6575223e-07  5.0394161e-07 -1.0395159e-10  1.2972237e-10
Loop time of 0.0193134 on 2 procs for 1 steps with 324 atoms

107.9% CPU use with 1 MPI tasks x 2 OpenMP threads

Minimization stats:
  Stopping criterion = force tolerance
  Energy initial, next-to-last, final = 
     -3345.98518356535  -3345.98518356535  -3345.98518356535
  Force two-norm initial, final = 4.2751346e-09 4.2702849e-09
  Force max component initial, final = 9.3491259e-10 9.3350516e-10
  Final line search alpha, max atom move = 0 0
  Iterations, force evaluations = 1 2

MPI task timing breakdown:
Section |  min time  |  avg time  |  max time  |%varavg| %total
---------------------------------------------------------------
Pair    | 0.019219   | 0.019219   | 0.019219   |   0.0 | 99.51
Neigh   | 0          | 0          | 0          |   0.0 |  0.00
Comm    | 6.0026e-05 | 6.0026e-05 | 6.0026e-05 |   0.0 |  0.31
Output  | 0          | 0          | 0          |   0.0 |  0.00
Modify  | 0          | 0          | 0          |   0.0 |  0.00
Other   |            | 3.445e-05  |            |       |  0.18

Nlocal:            324 ave         324 max         324 min
Histogram: 1 0 0 0 0 0 0 0 0 0
Nghost:           6880 ave        6880 max        6880 min
Histogram: 1 0 0 0 0 0 0 0 0 0
Neighs:              0 ave           0 max           0 min
Histogram: 1 0 0 0 0 0 0 0 0 0
FullNghs:        36876 ave       36876 max       36876 min
Histogram: 1 0 0 0 0 0 0 0 0 0

Total # of neighbors = 36876
Ave neighs/atom = 113.81481
Neighbor list builds = 0
Dangerous builds = 0

fix             3 all box/relax z 0.0 vmax 0.001
min_style       cg
minimize        0.0 1.0e-8 1000 2000
Switching to 'neigh_modify every 1 delay 0 check yes' setting during minimization
WARNING: Energy due to 3 extra global DOFs will be included in minimizer energies
 (src/min.cpp:219)
Per MPI rank memory allocation (min/avg/max) = 5.632 | 5.632 | 5.632 Mbytes
   Step          Time           Temp          Fnorm          PotEng         KinEng           Lx             Ly             Lz            Pxx            Pyy            Pzz            Pxy            Pxz            Pyz      
      1572   1.572          1.8514195e-20  4.2704564e-09 -3345.9852      7.7298663e-22  4.9770056      4.3102133      219.59819      1765.3936      1765.3936      1.6577458e-07  5.0398707e-07 -1.071989e-10   1.4142778e-10
      1574   1.574          1.8514195e-20  3.3996664e-09 -3345.9852      7.7298663e-22  4.9770056      4.3102133      219.59819      1765.3936      1765.3936      1.7643602e-08  5.03817e-07   -6.4757349e-11  1.084072e-10 
Loop time of 0.0321482 on 2 procs for 2 steps with 324 atoms

104.8% CPU use with 1 MPI tasks x 2 OpenMP threads

Minimization stats:
  Stopping criterion = force tolerance
  Energy initial, next-to-last, final = 
     -3345.98518356535  -3345.98518356535  -3345.98518356535
  Force two-norm initial, final = 4.2981829e-09 3.4000622e-09
  Force max component initial, final = 9.3354857e-10 7.2512518e-10
  Final line search alpha, max atom move = 1 7.2512518e-10
  Iterations, force evaluations = 2 4

MPI task timing breakdown:
Section |  min time  |  avg time  |  max time  |%varavg| %total
---------------------------------------------------------------
Pair    | 0.031698   | 0.031698   | 0.031698   |   0.0 | 98.60
Neigh   | 0          | 0          | 0          |   0.0 |  0.00
Comm    | 0.00015151 | 0.00015151 | 0.00015151 |   0.0 |  0.47
Output  | 0          | 0          | 0          |   0.0 |  0.00
Modify  | 0          | 0          | 0          |   0.0 |  0.00
Other   |            | 0.0002992  |            |       |  0.93

Nlocal:            324 ave         324 max         324 min
Histogram: 1 0 0 0 0 0 0 0 0 0
Nghost:           6880 ave        6880 max        6880 min
Histogram: 1 0 0 0 0 0 0 0 0 0
Neighs:              0 ave           0 max           0 min
Histogram: 1 0 0 0 0 0 0 0 0 0
FullNghs:        36876 ave       36876 max       36876 min
Histogram: 1 0 0 0 0 0 0 0 0 0

Total # of neighbors = 36876
Ave neighs/atom = 113.81481
Neighbor list builds = 0
Dangerous builds = 0
unfix           3
min_style       fire
minimize        0.0 1.0e-8 2000 4000
Switching to 'neigh_modify every 1 delay 0 check yes' setting during minimization
  Parameters for fire:
    dmax  delaystep dtgrow dtshrink alpha0 alphashrink tmax tmin   integrator   halfstepback   abcfire  
     0.1     20      1.1     0.5     0.25     0.99      10  0.02 eulerimplicit      yes          no     
Per MPI rank memory allocation (min/avg/max) = 4.507 | 4.507 | 4.507 Mbytes
   Step          Time           Temp          Fnorm          PotEng         KinEng           Lx             Ly             Lz            Pxx            Pyy            Pzz            Pxy            Pxz            Pyz      
      1574   1.574          0              3.3998414e-09 -3345.9852      0              4.9770056      4.3102133      219.59819      1765.3936      1765.3936      1.7350589e-08  5.0376709e-07 -3.1302532e-11  1.3268649e-10
      1575   1.575          1.3006371e-20  3.3970654e-09 -3345.9852      5.4302936e-22  4.9770056      4.3102133      219.59819      1765.3936      1765.3936      1.7766849e-08  5.0380802e-07 -2.8734893e-11  1.0565076e-10
Loop time of 0.0187476 on 2 procs for 1 steps with 324 atoms

101.1% CPU use with 1 MPI tasks x 2 OpenMP threads

Minimization stats:
  Stopping criterion = force tolerance
  Energy initial, next-to-last, final = 
     -3345.98518356535  -3345.98518356535  -3345.98518356535
  Force two-norm initial, final = 3.3998414e-09 3.3970654e-09
  Force max component initial, final = 7.2512824e-10 7.2426959e-10
  Final line search alpha, max atom move = 0 0
  Iterations, force evaluations = 1 2

MPI task timing breakdown:
Section |  min time  |  avg time  |  max time  |%varavg| %total
---------------------------------------------------------------
Pair    | 0.018573   | 0.018573   | 0.018573   |   0.0 | 99.07
Neigh   | 0          | 0          | 0          |   0.0 |  0.00
Comm    | 0.00011541 | 0.00011541 | 0.00011541 |   0.0 |  0.62
Output  | 0          | 0          | 0          |   0.0 |  0.00
Modify  | 0          | 0          | 0          |   0.0 |  0.00
Other   |            | 5.941e-05  |            |       |  0.32

Nlocal:            324 ave         324 max         324 min
Histogram: 1 0 0 0 0 0 0 0 0 0
Nghost:           6880 ave        6880 max        6880 min
Histogram: 1 0 0 0 0 0 0 0 0 0
Neighs:              0 ave           0 max           0 min
Histogram: 1 0 0 0 0 0 0 0 0 0
FullNghs:        36876 ave       36876 max       36876 min
Histogram: 1 0 0 0 0 0 0 0 0 0

Total # of neighbors = 36876
Ave neighs/atom = 113.81481
Neighbor list builds = 0
Dangerous builds = 0


write_data      fire_cg_${name}.data
write_data      fire_cg_lmps.data
System init for write_data ...

write_data      bi_minimised.data
System init for write_data ...

print """- step: $(step)
  atoms: $(atoms)
  temp: $(temp)
  press: $(press)
  pe: $(pe)
  ke: $(ke)
  etotal: $(etotal)
  vol: $(vol)
  avecx: $(avecx)
  avecy: $(avecy)
  avecz: $(avecz)
  bvecx: $(bvecx)
  bvecy: $(bvecy)
  bvecz: $(bvecz)
  cvecx: $(cvecx)
  cvecy: $(cvecy)
  cvecz: $(cvecz)
  lx: $(lx)
  ly: $(ly)
  lz: $(lz)
  cella: $(cella)
  cellb: $(cellb)
  cellc: $(cellc)
  cellalpha: $(cellalpha)
  cellbeta: $(cellbeta)
  cellgamma: $(cellgamma)
  pxx: $(pxx)
  pyy: $(pyy)
  pzz: $(pzz)
  pxy: $(pxy)
  pyz: $(pyz)
  pxz: $(pxz)
  xlo: $(xlo)
  xhi: $(xhi)
  ylo: $(ylo)
  yhi: $(yhi)
  zlo: $(zlo)
  zhi: $(zhi)
  xy: $(xy)
  xz: $(xz)
  yz: $(yz)
""" file bi_minimised.data.yaml screen yes universe no
- step: 1575
  atoms: 324
  temp: 1.3006371376423338615e-20
  press: 1176.9290632307183841
  pe: -3345.9851835653530543
  ke: 5.4302936036302674365e-22
  etotal: -3345.9851835653530543
  vol: 4710.8107031835043017
  avecx: 4.9770056176543331361
  avecy: 0
  avecz: 0
  bvecx: -2.4885028088300003013
  bvecy: 4.3102132996662358977
  bvecz: 0
  cvecx: 0
  cvecy: 0
  cvecz: 219.59819169149156437
  lx: 4.9770056176543331361
  ly: 4.3102132996662358977
  lz: 219.59819169149156437
  cella: 4.9770056176543331361
  cellb: 4.9770056176555090843
  cellc: 219.59819169149156437
  cellalpha: 90
  cellbeta: 90
  cellgamma: 120.00000000002985701
  pxx: 1765.3935947879560899
  pyy: 1765.3935948864320835
  pzz: 1.7766848802331303658e-08
  pxy: 5.0380801813501908309e-07
  pyz: 1.0565076456233699358e-10
  pxz: -2.8734893435288052923e-11
  xlo: -0.019038925427171102256
  xhi: 4.9579666922271616869
  ylo: -0.016488193083117452103
  yhi: 4.293725106583118567
  zlo: -7.0215233503455296571
  zhi: 212.57666834114604626
  xy: -2.4885028088300003013
  xz: 0
  yz: 0

[GRACE:debug, proc #0]: Data preparation timer: 1.21984e+06 mcs, graph execution time: 1.94879e+07 mcs, data preparation time fraction: 5.89 %
Total wall time: 0:00:23
