
thermo          10
thermo_style    custom step time temp fnorm pe ke lx ly lz pxx pyy pzz pxy pxz pyz

timestep        0.001

min_style       fire
minimize        0.0 1.0e-8 2000 4000

CITE-CITE-CITE-CITE-CITE-CITE-CITE-CITE-CITE-CITE-CITE-CITE-CITE

Your simulation uses code contributions which should be cited:

- Type Label Framework: https://doi.org/10.1021/acs.jpcb.3c08419

@Article{Gissinger24,
 author = {Jacob R. Gissinger, Ilia Nikiforov, Yaser Afshar, Brendon Waters, Moon-ki Choi, Daniel S. Karls, Alexander Stukowski, Wonpil Im, Hendrik Heinz, Axel Kohlmeyer, and Ellad B. Tadmor},
 title = {Type Label Framework for Bonded Force Fields in LAMMPS},
 journal = {J. Phys. Chem. B},
 year =    2024,
 volume =  128,
 number =  13,
 pages =   {3282–-3297}
}

CITE-CITE-CITE-CITE-CITE-CITE-CITE-CITE-CITE-CITE-CITE-CITE-CITE

Switching to 'neigh_modify every 1 delay 0 check yes' setting during minimization
Neighbor list info ...
  update: every = 1 steps, delay = 0 steps, check = yes
  max neighbors/atom: 2000, page size: 100000
  master list distance cutoff = 7.4
  ghost atom cutoff = 7.4
  binsize = 3.7, bins = 2 2 57
  1 neighbor lists, perpetual/occasional/extra = 1 0 0
  (1) pair grace, perpetual
      attributes: full, newton on
      pair build: full/bin/atomonly
      stencil: full/bin/3d
      bin: standard
  Parameters for fire:
    dmax  delaystep dtgrow dtshrink alpha0 alphashrink tmax tmin   integrator   halfstepback   abcfire  
     0.1     20      1.1     0.5     0.25     0.99      10  0.02 eulerimplicit      yes          no     
[GRACE] Atoms padding: new num. of atoms = 329 (incl. 0.912% fake atoms)
[GRACE] Neighbours padding: extending new num. of neighbours = 22422 (incl. 0.990% fake neighbours)
Per MPI rank memory allocation (min/avg/max) = 4.498 | 4.498 | 4.498 Mbytes
   Step          Time           Temp          Fnorm          PotEng         KinEng           Lx             Ly             Lz            Pxx            Pyy            Pzz            Pxy            Pxz            Pyz      
         0   0              0              46.15253      -3202.5567      0              4.8541311      4.2038008      209.43826      159506.44      159506.44      321694.4       1.4609928e-05  9.5062021e-11 -1.0318849e-10
        10   0.01           242.60455      40.213637     -3216.9499      10.191707      4.8541311      4.2038008      209.43826      144673.5       144673.5       315980.23      1.4310602e-05 -2.1692003e-10  3.558802e-11 
        20   0.02           736.1296       26.847041     -3244.8405      30.924471      4.8541311      4.2038008      209.43826      117177.15      117177.15      304865.62      1.3672922e-05 -2.5752037e-10  4.9067884e-11
        30   0.070738431    1490.0627      4.5734466     -3272.4878      62.596859      4.8541311      4.2038008      209.43826      99795.371      99795.371      284201.09      1.2234574e-05 -7.9869176e-12  1.0317858e-10
        40   0.057062334    1.5985251      3.1768069     -3273.446       0.067153314    4.8541311      4.2038008      209.43826      103095.16      103095.16      227619.46      1.1834658e-05 -2.7250938e-11  3.1839109e-12
        50   0.071327918    6.8568138      2.1028357     -3273.6593      0.28805164     4.8541311      4.2038008      209.43826      103088.57      103088.57      227604.14      1.1844648e-05  8.4496252e-11  1.5926589e-10
        60   0.16679752     11.469948      0.777957      -3273.8599      0.48184732     4.8541311      4.2038008      209.43826      103347.4       103347.4       227393.43      1.184726e-05   2.5885875e-11  1.1455173e-10
        70   0.50473478     8.9094661      0.31505012    -3274.0386      0.37428263     4.8541311      4.2038008      209.43826      103218.6       103218.6       226838.88      1.1793513e-05  8.3785434e-11  4.2609986e-12
        80   0.8            4.6916231      0.16582958    -3274.1409      0.19709296     4.8541311      4.2038008      209.43826      102937.38      102937.38      226721.59      1.178276e-05   8.8803837e-12  4.4404704e-11
        90   0.9            1.6265528      0.075583107   -3274.1715      0.068330746    4.8541311      4.2038008      209.43826      102893.85      102893.85      226561.5       1.1779657e-05  5.5229009e-11  9.8178456e-11
       100   1              0.57609392     0.062192306   -3274.1807      0.024201445    4.8541311      4.2038008      209.43826      102875.84      102875.84      226507.17      1.1776102e-05 -1.0183051e-11 -1.0739244e-10
       110   1.1            0.08841496     0.021111748   -3274.1822      0.0037142724   4.8541311      4.2038008      209.43826      102858.82      102858.82      226509.9       1.1773918e-05  2.9500653e-12  2.2258936e-10
       120   0.6            6.0807084e-05  0.0051075211  -3274.1822      2.554478e-06   4.8541311      4.2038008      209.43826      102855.79      102855.79      226509.03      1.1773017e-05 -6.9631447e-11 -9.082489e-11 
       130   0.65           4.8614219e-05  0.0020504464  -3274.1822      2.0422613e-06  4.8541311      4.2038008      209.43826      102855.78      102855.78      226508.95      1.1772922e-05 -6.7676463e-11  4.7986413e-11
       140   1.2400927      5.66535e-05    0.00093853431 -3274.1822      2.3799879e-06  4.8541311      4.2038008      209.43826      102855.4       102855.4       226509.16      1.1772706e-05 -6.0184432e-11  1.9115312e-10
       150   1.5            4.81472e-05    0.00060956966 -3274.1822      2.0226421e-06  4.8541311      4.2038008      209.43826      102855.38      102855.38      226509.16      1.1771942e-05  4.0064505e-11 -5.366587e-12 
       160   1.6            2.6005707e-05  0.00039665516 -3274.1822      1.092488e-06   4.8541311      4.2038008      209.43826      102855.22      102855.22      226509.27      1.1771035e-05 -3.0139943e-11 -4.789158e-11 
       170   1.7            1.1326107e-05  0.00026636059 -3274.1822      4.7580461e-07  4.8541311      4.2038008      209.43826      102855.09      102855.09      226509.38      1.1770094e-05 -2.7759131e-11  5.809768e-11 
       180   1.8            3.7561187e-06  0.00012116782 -3274.1822      1.5779285e-07  4.8541311      4.2038008      209.43826      102855.02      102855.02      226509.44      1.1769205e-05 -4.8571938e-11  4.0349722e-11
       190   1.9            9.2055743e-07  5.9718309e-05 -3274.1822      3.8672201e-08  4.8541311      4.2038008      209.43826      102854.98      102854.98      226509.47      1.1768071e-05 -6.6393579e-12  3.1927944e-11
       200   1              4.2375348e-12  1.4945155e-05 -3274.1822      1.7801692e-13  4.8541311      4.2038008      209.43826      102854.97      102854.97      226509.48      1.1767078e-05  2.0706373e-11  7.5331136e-11
       210   1.05           2.4303123e-11  3.1158122e-06 -3274.1822      1.0209632e-12  4.8541311      4.2038008      209.43826      102854.97      102854.97      226509.48      1.1767085e-05  3.6730399e-11  4.5366718e-12
       220   1.1            5.7986359e-11  2.4491319e-06 -3274.1822      2.4359807e-12  4.8541311      4.2038008      209.43826      102854.97      102854.97      226509.48      1.1767106e-05 -7.2940538e-11 -2.441583e-11 
       230   2.3            1.7412881e-10  2.0895265e-06 -3274.1822      7.3150726e-12  4.8541311      4.2038008      209.43826      102854.97      102854.97      226509.48      1.1766949e-05 -3.3088577e-11 -7.1764751e-11
       240   2.4            3.6048336e-10  1.4899296e-06 -3274.1822      1.5143743e-11  4.8541311      4.2038008      209.43826      102854.97      102854.97      226509.48      1.1766283e-05  1.2758872e-10 -4.9838382e-11
       250   2.5            3.3859812e-10  8.8543458e-07 -3274.1822      1.4224354e-11  4.8541311      4.2038008      209.43826      102854.97      102854.97      226509.48      1.176569e-05   1.2944085e-10 -5.6323404e-11
       260   1.3            4.467427e-13   1.4453011e-06 -3274.1822      1.8767459e-14  4.8541311      4.2038008      209.43826      102854.96      102854.96      226509.48      1.1765211e-05 -2.1871757e-11  7.9576463e-11
       270   1.35           8.5779048e-13  4.9856955e-07 -3274.1822      3.6035389e-14  4.8541311      4.2038008      209.43826      102854.96      102854.96      226509.48      1.1765031e-05  6.2993156e-11  3.8912893e-11
       280   1.694          2.2421789e-12  4.3762697e-07 -3274.1822      9.4192919e-14  4.8541311      4.2038008      209.43826      102854.96      102854.96      226509.48      1.1764983e-05 -1.5191614e-12 -4.4989537e-11
       290   2.9            6.9575711e-12  3.6889199e-07 -3274.1822      2.9228441e-13  4.8541311      4.2038008      209.43826      102854.96      102854.96      226509.48      1.1764873e-05  6.9923012e-12 -8.1941049e-11
       300   3              1.3542373e-11  2.5674033e-07 -3274.1822      5.6890897e-13  4.8541311      4.2038008      209.43826      102854.96      102854.96      226509.48      1.1764393e-05  5.4481694e-11  1.0813618e-11
       310   3.1            8.5337698e-12  1.6729014e-07 -3274.1822      3.584998e-13   4.8541311      4.2038008      209.43826      102854.96      102854.96      226509.48      1.1763798e-05 -5.3420361e-11 -7.8749251e-11
       320   3.2            3.4303585e-12  2.3856931e-07 -3274.1822      1.4410781e-13  4.8541311      4.2038008      209.43826      102854.96      102854.96      226509.48      1.1762881e-05  2.2829036e-11  3.959444e-11 
       330   1.65           5.7675101e-15  7.3184081e-08 -3274.1822      2.4229049e-16  4.8541311      4.2038008      209.43826      102854.96      102854.96      226509.48      1.1762763e-05  8.7819993e-11 -8.452154e-11 
       340   1.7            1.1767131e-14  4.3332486e-08 -3274.1822      4.9433183e-16  4.8541311      4.2038008      209.43826      102854.96      102854.96      226509.48      1.1762706e-05 -3.2256158e-11 -5.0413254e-12
       350   3.4102549      3.4489089e-14  3.8551156e-08 -3274.1822      1.448871e-15   4.8541311      4.2038008      209.43826      102854.96      102854.96      226509.48      1.1762536e-05  5.3482792e-11  7.1124829e-11
       360   3.6            8.7307344e-14  2.9694422e-08 -3274.1822      3.667742e-15   4.8541311      4.2038008      209.43826      102854.96      102854.96      226509.48      1.1762493e-05 -6.9590061e-11 -1.1750606e-10
       370   3.7            9.7719609e-14  2.1520166e-08 -3274.1822      4.1051565e-15  4.8541311      4.2038008      209.43826      102854.96      102854.96      226509.48      1.1761665e-05  6.8403866e-11  1.0041031e-12
       380   3.8            4.6743645e-14  1.2137555e-08 -3274.1822      1.9636794e-15  4.8541311      4.2038008      209.43826      102854.96      102854.96      226509.48      1.1761318e-05 -1.8313175e-12  9.4625001e-11
       383   3.83           3.2331046e-14  9.3581366e-09 -3274.1822      1.3582126e-15  4.8541311      4.2038008      209.43826      102854.96      102854.96      226509.48      1.176111e-05   8.1930642e-11 -6.9465198e-11
Loop time of 2.59722 on 2 procs for 383 steps with 326 atoms

103.4% CPU use with 1 MPI tasks x 2 OpenMP threads

Minimization stats:
  Stopping criterion = force tolerance
  Energy initial, next-to-last, final = 
     -3202.55673689757  -3274.18221957701  -3274.18221957701
  Force two-norm initial, final = 46.15253 9.3581366e-09
  Force max component initial, final = 3.7055665 2.626223e-09
  Final line search alpha, max atom move = 0 0
  Iterations, force evaluations = 383 389

MPI task timing breakdown:
Section |  min time  |  avg time  |  max time  |%varavg| %total
---------------------------------------------------------------
Pair    | 2.5826     | 2.5826     | 2.5826     |   0.0 | 99.44
Neigh   | 0          | 0          | 0          |   0.0 |  0.00
Comm    | 0.010118   | 0.010118   | 0.010118   |   0.0 |  0.39
Output  | 0.00099497 | 0.00099497 | 0.00099497 |   0.0 |  0.04
Modify  | 0          | 0          | 0          |   0.0 |  0.00
Other   |            | 0.003473   |            |       |  0.13

Nlocal:            326 ave         326 max         326 min
Histogram: 1 0 0 0 0 0 0 0 0 0
Nghost:           6987 ave        6987 max        6987 min
Histogram: 1 0 0 0 0 0 0 0 0 0
Neighs:              0 ave           0 max           0 min
Histogram: 1 0 0 0 0 0 0 0 0 0
FullNghs:        40776 ave       40776 max       40776 min
Histogram: 1 0 0 0 0 0 0 0 0 0

Total # of neighbors = 40776
Ave neighs/atom = 125.07975
Neighbor list builds = 0
Dangerous builds = 0

#write_data      fire_${name}.data

fix             3 all box/relax z 0.0 vmax 0.001
min_style       cg
minimize        0.0 1.0e-8 1000 2000
Switching to 'neigh_modify every 1 delay 0 check yes' setting during minimization
WARNING: Energy due to 3 extra global DOFs will be included in minimizer energies
 (src/min.cpp:219)
Per MPI rank memory allocation (min/avg/max) = 5.625 | 5.625 | 5.625 Mbytes
   Step          Time           Temp          Fnorm          PotEng         KinEng           Lx             Ly             Lz            Pxx            Pyy            Pzz            Pxy            Pxz            Pyz      
       383   0.383          3.2331046e-14  9.3581597e-09 -3274.1822      1.3582126e-15  4.8541311      4.2038008      209.43826      102854.96      102854.96      226509.48      1.1761057e-05  1.1212657e-10 -8.5069765e-11
       390   0.39           3.2331046e-14  0.3559006     -3278.123       1.3582126e-15  4.8541311      4.2038008      210.90433      90264.169      90264.169      195892.66      1.1349426e-05 -1.031635e-10  -1.1846423e-10
       400   0.4            3.2331046e-14  0.81487357    -3282.7976      1.3582126e-15  4.8541311      4.2038008      212.99871      73099.129      73099.129      155156.48      1.0811597e-05  1.8080719e-10 -2.0145775e-10
       410   0.41           3.2331046e-14  1.2230667     -3286.4284      1.3582126e-15  4.8541311      4.2038008      215.09309      56834.089      56834.089      117554.09      1.0331664e-05 -1.4265374e-11 -1.0090466e-10
       420   0.42           3.2331046e-14  1.587699      -3289.0934      1.3582126e-15  4.8541311      4.2038008      217.18747      41407.87       41407.87       82678.274      9.9046824e-06  9.3115112e-11 -9.9391665e-11
       430   0.43           3.2331046e-14  1.9144317     -3290.8605      1.3582126e-15  4.8541311      4.2038008      219.28186      26772.161      26772.161      50173.143      9.5270964e-06  2.0581848e-10 -9.3950645e-11
       440   0.44           3.2331046e-14  2.2066388     -3291.7891      1.3582126e-15  4.8541311      4.2038008      221.37624      12889.816      12889.816      19742.816      9.1933133e-06  3.6921277e-10 -3.801914e-11 
       450   0.45           3.2331046e-14  0.53742271    -3292.3595      1.3582126e-15  4.8541311      4.2038008      223.16265      241.11039      241.11039     -1310.8595      8.9689517e-06 -1.5624475e-10 -2.3928945e-11
       460   0.46           3.2331046e-14  0.15753031    -3292.3682      1.3582126e-15  4.8541311      4.2038008      223.07749      688.16209      688.16209     -208.4984       9.0485865e-06 -1.3364026e-11 -2.7255579e-12
       470   0.47           3.2331046e-14  0.10154797    -3292.3698      1.3582126e-15  4.8541311      4.2038008      223.0615       761.34339      761.34339      65.921446      9.0390971e-06  6.6746762e-11  3.233779e-12 
       480   0.48           3.2331046e-14  0.14892268    -3292.3699      1.3582126e-15  4.8541311      4.2038008      223.06132      769.12726      769.12726      54.889143      9.0045115e-06 -1.8937651e-10  1.9605717e-10
       490   0.49           3.2331046e-14  0.17295475    -3292.3701      1.3582126e-15  4.8541311      4.2038008      223.06424      795.34869      795.34869      26.892542      8.9795042e-06 -2.6463907e-10  4.1931268e-10
       500   0.5            3.2331046e-14  0.097024495   -3292.3714      1.3582126e-15  4.8541311      4.2038008      223.06716      739.59095      739.59095     -28.170162      9.0260726e-06  1.0082101e-11  1.7046853e-10
       510   0.51           3.2331046e-14  0.10578886    -3292.3714      1.3582126e-15  4.8541311      4.2038008      223.07377      677.1399       677.1399      -51.991129      9.0447618e-06  2.1625074e-10 -1.9297993e-10
       520   0.52           3.2331046e-14  0.083443816   -3292.3715      1.3582126e-15  4.8541311      4.2038008      223.07773      660.05932      660.05932     -54.247137      9.0504852e-06 -8.6592544e-11 -1.9449711e-10
       530   0.53           3.2331046e-14  0.1029738     -3292.3716      1.3582126e-15  4.8541311      4.2038008      223.08228      639.91897      639.91897     -112.34461      9.0369297e-06  8.2526952e-11 -8.4392795e-11
       540   0.54           3.2331046e-14  0.046536497   -3292.372       1.3582126e-15  4.8541311      4.2038008      223.076        690.34952      690.34952     -104.64786      9.0275585e-06  6.5023065e-11  6.4564834e-11
       550   0.55           3.2331046e-14  0.03146309    -3292.3724      1.3582126e-15  4.8541311      4.2038008      223.06832      721.21597      721.21597      21.429787      9.0300067e-06  2.1414583e-11 -1.018823e-10 
       560   0.56           3.2331046e-14  0.02072558    -3292.3727      1.3582126e-15  4.8541311      4.2038008      223.07008      722.52881      722.52881     -16.308581      9.0335808e-06 -7.9327116e-11  3.9461455e-11
       570   0.57           3.2331046e-14  0.039749398   -3292.3728      1.3582126e-15  4.8541311      4.2038008      223.07044      701.91138      701.91138     -1.2412365      9.0276078e-06 -2.0945451e-11  3.5177997e-10
       580   0.58           3.2331046e-14  0.049872624   -3292.3728      1.3582126e-15  4.8541311      4.2038008      223.07049      717.51055      717.51055     -15.357888      9.0260677e-06 -3.9608777e-10  4.1035863e-10
       590   0.59           3.2331046e-14  0.046219757   -3292.3728      1.3582126e-15  4.8541311      4.2038008      223.07031      731.135        731.135       -22.384043      9.027125e-06  -4.7963548e-10  5.0284011e-11
       600   0.6            3.2331046e-14  0.043658764   -3292.3729      1.3582126e-15  4.8541311      4.2038008      223.07213      718.58431      718.58431     -57.137692      9.02794e-06   -1.6107556e-10 -1.5848426e-10
       610   0.61           3.2331046e-14  0.015840117   -3292.373       1.3582126e-15  4.8541311      4.2038008      223.0707       710.99566      710.99566     -2.0409481      9.0318889e-06 -7.2918221e-11  1.3483191e-11
       620   0.62           3.2331046e-14  0.030274482   -3292.373       1.3582126e-15  4.8541311      4.2038008      223.07112      715.58419      715.58419     -15.211869      9.0316333e-06  2.4790586e-10 -6.9567825e-11
       630   0.63           3.2331046e-14  0.026635524   -3292.3731      1.3582126e-15  4.8541311      4.2038008      223.07027      722.56351      722.56351     -20.005307      9.0306795e-06  2.9401809e-10 -5.4794678e-10
       640   0.64           3.2331046e-14  0.022411533   -3292.3731      1.3582126e-15  4.8541311      4.2038008      223.0709       717.63928      717.63928     -31.671665      9.0286047e-06  1.5380807e-10 -4.3958644e-10
       650   0.65           3.2331046e-14  0.0068947825  -3292.3731      1.3582126e-15  4.8541311      4.2038008      223.07076      709.52325      709.52325     -5.8207747      9.0311709e-06  1.2192111e-11 -5.9287558e-11
       660   0.66           3.2331046e-14  0.0021604966  -3292.3731      1.3582126e-15  4.8541311      4.2038008      223.07023      714.3501       714.3501      -1.5431035      9.0311425e-06 -2.3602733e-11 -1.6903406e-11
       670   0.67           3.2331046e-14  0.0019925677  -3292.3731      1.3582126e-15  4.8541311      4.2038008      223.07002      716.56276      716.56276     -1.1571679      9.030684e-06   5.6271468e-11  1.6099892e-11
       680   0.68           3.2331046e-14  0.0014045187  -3292.3731      1.3582126e-15  4.8541311      4.2038008      223.07017      715.09745      715.09745     -0.92246016     9.0298402e-06 -7.104268e-11  -1.6401388e-10
       690   0.69           3.2331046e-14  0.0012100994  -3292.3731      1.3582126e-15  4.8541311      4.2038008      223.07017      714.94957      714.94957     -0.80635194     9.030776e-06   1.6178036e-10  2.4124147e-10
       700   0.7            3.2331046e-14  0.00083772182 -3292.3731      1.3582126e-15  4.8541311      4.2038008      223.0701       715.74097      715.74097     -0.54551484     9.0306604e-06 -3.7670607e-11 -3.0512423e-11
       710   0.71           3.2331046e-14  0.00091797153 -3292.3731      1.3582126e-15  4.8541311      4.2038008      223.07006      716.12551      716.12551     -0.60798056     9.0310501e-06 -2.1015826e-10 -1.3154308e-10
       720   0.72           3.2331046e-14  0.00071380425 -3292.3731      1.3582126e-15  4.8541311      4.2038008      223.07007      715.9248       715.9248      -0.51078613     9.0304929e-06  3.2825015e-11  1.3386818e-10
       730   0.73           3.2331046e-14  0.000480128   -3292.3731      1.3582126e-15  4.8541311      4.2038008      223.07008      715.72957      715.72957     -0.35058832     9.0302718e-06  3.1027453e-11  4.3712038e-11
       740   0.74           3.2331046e-14  0.00036846522 -3292.3731      1.3582126e-15  4.8541311      4.2038008      223.07007      715.88621      715.88621     -0.24873988     9.0302421e-06  5.6271454e-11  5.1450891e-12
       750   0.75           3.2331046e-14  0.00042419619 -3292.3731      1.3582126e-15  4.8541311      4.2038008      223.07006      716.06626      716.06626     -0.25827247     9.0305745e-06 -1.4841597e-10 -9.5201709e-11
       760   0.76           3.2331046e-14  0.00047987936 -3292.3731      1.3582126e-15  4.8541311      4.2038008      223.07007      716.06412      716.06412     -0.26876253     9.0305545e-06 -6.7525747e-11 -4.4978392e-11
       770   0.77           3.2331046e-14  0.00028245604 -3292.3731      1.3582126e-15  4.8541311      4.2038008      223.07006      715.921        715.921       -0.14514075     9.0304743e-06 -1.5318341e-11  2.4952417e-10
       780   0.78           3.2331046e-14  0.00033094516 -3292.3731      1.3582126e-15  4.8541311      4.2038008      223.07007      715.79631      715.79631     -0.16260938     9.0300662e-06  2.3845029e-10 -1.2547112e-10
       790   0.79           3.2331046e-14  0.00030213205 -3292.3731      1.3582126e-15  4.8541311      4.2038008      223.07007      715.85262      715.85262     -0.13414764     9.0300646e-06  2.5564434e-10 -2.1187247e-10
       800   0.8            3.2331046e-14  0.00029379202 -3292.3731      1.3582126e-15  4.8541311      4.2038008      223.07006      715.95926      715.95926     -0.11873338     9.0302726e-06 -1.1004196e-10  1.1419607e-10
       810   0.81           3.2331046e-14  0.00023498601 -3292.3731      1.3582126e-15  4.8541311      4.2038008      223.07005      716.08371      716.08371     -0.087160031    9.0302949e-06 -2.1445678e-10  1.9120665e-10
       820   0.82           3.2331046e-14  0.00025638768 -3292.3731      1.3582126e-15  4.8541311      4.2038008      223.07005      716.06046      716.06046     -0.089230331    9.0304173e-06  1.8913463e-11  1.9913844e-10
       830   0.83           3.2331046e-14  0.0002351083  -3292.3731      1.3582126e-15  4.8541311      4.2038008      223.07006      715.96083      715.96083     -0.077915193    9.029851e-06   3.6904698e-10 -3.8202801e-10
       840   0.84           3.2331046e-14  0.00020147727 -3292.3731      1.3582126e-15  4.8541311      4.2038008      223.07006      715.93654      715.93654     -0.06194769     9.0295498e-06  3.5365048e-10 -3.8900484e-10
       850   0.85           3.2331046e-14  0.00018694007 -3292.3731      1.3582126e-15  4.8541311      4.2038008      223.07006      715.94206      715.94206     -0.054780377    9.0296943e-06 -8.4329032e-11 -8.6294808e-11
       860   0.86           3.2331046e-14  0.00013572498 -3292.3731      1.3582126e-15  4.8541311      4.2038008      223.07006      715.96565      715.96565     -0.037230324    9.0302682e-06 -3.5028983e-10  2.1834681e-10
       870   0.87           3.2331046e-14  0.0001535125  -3292.3731      1.3582126e-15  4.8541311      4.2038008      223.07005      716.00565      716.00565     -0.039787044    9.0306573e-06 -3.2442059e-10  1.5116879e-10
       880   0.88           3.2331046e-14  0.00015249711 -3292.3731      1.3582126e-15  4.8541311      4.2038008      223.07005      716.04957      716.04957     -0.037723953    9.0304919e-06  1.0144494e-10 -1.107478e-11 
       890   0.89           3.2331046e-14  0.00021279268 -3292.3731      1.3582126e-15  4.8541311      4.2038008      223.07005      716.07112      716.07112     -0.052128825    9.0292826e-06  6.3977523e-10 -5.2279459e-10
       900   0.9            3.2331046e-14  0.00019862908 -3292.3731      1.3582126e-15  4.8541311      4.2038008      223.07005      716.06574      716.06574     -0.04903574     9.0286377e-06  8.0882408e-10 -6.6924723e-10
       910   0.91           3.2331046e-14  0.00016091181 -3292.3731      1.3582126e-15  4.8541311      4.2038008      223.07005      716.03248      716.03248     -0.040173653    9.0289459e-06  5.0636498e-10 -5.0255402e-10
       920   0.92           3.2331046e-14  0.00011522856 -3292.3731      1.3582126e-15  4.8541311      4.2038008      223.07005      716.01001      716.01001     -0.028412786    9.0294602e-06  1.4630579e-10  1.6682387e-11
       930   0.93           3.2331046e-14  0.00010848913 -3292.3731      1.3582126e-15  4.8541311      4.2038008      223.07006      715.99137      715.99137     -0.026553154    9.0302146e-06 -2.9354944e-10  2.3069466e-10
       940   0.94           3.2331046e-14  0.00011613835 -3292.3731      1.3582126e-15  4.8541311      4.2038008      223.07006      715.97486      715.97486     -0.028037394    9.0302563e-06 -3.3473702e-10  4.1907552e-10
       950   0.95           3.2331046e-14  0.00015758839 -3292.3731      1.3582126e-15  4.8541311      4.2038008      223.07006      715.95782      715.95782     -0.038139291    9.0300657e-06 -3.8788229e-10  3.2528335e-10
       960   0.96           3.2331046e-14  0.00018313003 -3292.3731      1.3582126e-15  4.8541311      4.2038008      223.07006      715.96421      715.96421     -0.045672611    9.0295721e-06 -1.008197e-10  -1.0985635e-10
       970   0.97           3.2331046e-14  0.00015963994 -3292.3731      1.3582126e-15  4.8541311      4.2038008      223.07006      716.0004       716.0004      -0.041239502    9.0296155e-06  1.0589976e-10 -3.3526823e-10
       980   0.98           3.2331046e-14  0.00012766157 -3292.3731      1.3582126e-15  4.8541311      4.2038008      223.07005      716.02937      716.02937     -0.034043496    9.0295985e-06  1.886657e-10  -4.8455368e-10
       990   0.99           3.2331046e-14  8.4358916e-05 -3292.3731      1.3582126e-15  4.8541311      4.2038008      223.07005      716.03962      716.03962     -0.022947291    9.0298884e-06  1.1520018e-10 -4.1848357e-10
      1000   1              3.2331046e-14  7.296812e-05  -3292.3731      1.3582126e-15  4.8541311      4.2038008      223.07005      716.03838      716.03838     -0.019990971    9.0299617e-06  1.7162795e-10 -4.7790137e-11
      1010   1.01           3.2331046e-14  7.9604428e-05 -3292.3731      1.3582126e-15  4.8541311      4.2038008      223.07005      716.03725      716.03725     -0.022111827    9.0295766e-06  2.8268593e-10  1.8759443e-10
      1020   1.02           3.2331046e-14  7.7312698e-05 -3292.3731      1.3582126e-15  4.8541311      4.2038008      223.07005      716.04088      716.04088     -0.021875236    9.029216e-06   1.3966264e-10  2.6219777e-10
      1030   1.03           3.2331046e-14  0.00010592122 -3292.3731      1.3582126e-15  4.8541311      4.2038008      223.07005      716.03641      716.03641     -0.030649016    9.0292611e-06 -3.6232568e-10  2.8728913e-11
      1040   1.04           3.2331046e-14  0.00012059653 -3292.3731      1.3582126e-15  4.8541311      4.2038008      223.07005      716.02005      716.02005     -0.035776272    9.0296598e-06 -1.0842416e-09  1.1114346e-10
      1050   1.05           3.2331046e-14  0.00012042168 -3292.3731      1.3582126e-15  4.8541311      4.2038008      223.07005      716.00068      716.00068     -0.036908856    9.0294855e-06 -1.0377395e-09 -3.6797785e-11
      1060   1.06           3.2331046e-14  8.9930472e-05 -3292.3731      1.3582126e-15  4.8541311      4.2038008      223.07005      715.99792      715.99792     -0.028364705    9.0295137e-06 -7.7709322e-10 -3.0889771e-11
      1070   1.07           3.2331046e-14  6.0792665e-05 -3292.3731      1.3582126e-15  4.8541311      4.2038008      223.07005      716.0065       716.0065      -0.019705208    9.0296147e-06 -4.5978472e-10 -9.2524909e-11
      1080   1.08           3.2331046e-14  5.8530181e-05 -3292.3731      1.3582126e-15  4.8541311      4.2038008      223.07005      716.01331      716.01331     -0.019518944    9.0292661e-06  2.9151742e-11  2.1635234e-10
      1090   1.09           3.2331046e-14  6.8401466e-05 -3292.3731      1.3582126e-15  4.8541311      4.2038008      223.07005      716.01849      716.01849     -0.023404132    9.0288833e-06  5.1699403e-10  3.9065832e-10
      1100   1.1            3.2331046e-14  7.8916448e-05 -3292.3731      1.3582126e-15  4.8541311      4.2038008      223.07005      716.02475      716.02475     -0.027705514    9.0282906e-06  1.1498916e-09  1.5751185e-10
      1110   1.11           3.2331046e-14  9.3391755e-05 -3292.3731      1.3582126e-15  4.8541311      4.2038008      223.07005      716.03298      716.03298     -0.03386308     9.0281178e-06  1.2477415e-09 -1.77913e-10  
      1120   1.12           3.2331046e-14  0.000106353   -3292.3731      1.3582126e-15  4.8541311      4.2038008      223.07005      716.0416       716.0416      -0.039922891    9.0290696e-06  4.4509162e-10 -7.1401558e-10
      1130   1.13           3.2331046e-14  9.970318e-05  -3292.3731      1.3582126e-15  4.8541311      4.2038008      223.07005      716.043        716.043       -0.038880847    9.0302556e-06 -6.8760597e-10 -1.2528145e-09
      1140   1.14           3.2331046e-14  9.0050554e-05 -3292.3731      1.3582126e-15  4.8541311      4.2038008      223.07005      716.03376      716.03376     -0.036395547    9.0316631e-06 -1.557e-09     -1.1299457e-09
      1150   1.15           3.2331046e-14  5.88759e-05   -3292.3731      1.3582126e-15  4.8541311      4.2038008      223.07005      716.02913      716.02913     -0.024476424    9.0318266e-06 -1.4396115e-09 -4.7722362e-10
      1160   1.16           3.2331046e-14  5.244011e-05  -3292.3731      1.3582126e-15  4.8541311      4.2038008      223.07005      716.02395      716.02395     -0.022562939    9.0316703e-06 -1.0306274e-09  3.0510293e-11
      1170   1.17           3.2331046e-14  6.0091009e-05 -3292.3731      1.3582126e-15  4.8541311      4.2038008      223.07005      716.01401      716.01401     -0.026599897    9.0304094e-06  2.1508202e-10  4.2179385e-10
      1180   1.18           3.2331046e-14  6.0965375e-05 -3292.3731      1.3582126e-15  4.8541311      4.2038008      223.07005      716.00493      716.00493     -0.027878193    9.0286095e-06  1.2182771e-09  8.493568e-10 
      1190   1.19           3.2331046e-14  6.6184219e-05 -3292.3731      1.3582126e-15  4.8541311      4.2038008      223.07005      715.9982       715.9982      -0.031202296    9.026705e-06   1.9117447e-09  7.1647593e-10
      1200   1.2            3.2331046e-14  6.5891748e-05 -3292.3731      1.3582126e-15  4.8541311      4.2038008      223.07005      715.99868      715.99868     -0.031980498    9.0255457e-06  1.7785689e-09 -7.9724922e-11
      1210   1.21           3.2331046e-14  6.2369496e-05 -3292.3731      1.3582126e-15  4.8541311      4.2038008      223.07005      716.00479      716.00479     -0.031150136    9.0256801e-06  3.928842e-10  -6.353604e-10 
      1220   1.22           3.2331046e-14  5.3933186e-05 -3292.3731      1.3582126e-15  4.8541311      4.2038008      223.07005      716.01272      716.01272     -0.027655891    9.0266298e-06 -6.8830937e-10 -7.0864122e-10
      1230   1.23           3.2331046e-14  6.032427e-05  -3292.3731      1.3582126e-15  4.8541311      4.2038008      223.07005      716.01706      716.01706     -0.031770774    9.0280932e-06 -1.2792378e-09 -2.2151087e-11
      1240   1.24           3.2331046e-14  5.9615017e-05 -3292.3731      1.3582126e-15  4.8541311      4.2038008      223.07005      716.02126      716.02126     -0.032122451    9.0299505e-06 -1.3877167e-09  8.8606941e-10
      1250   1.25           3.2331046e-14  4.8737353e-05 -3292.3731      1.3582126e-15  4.8541311      4.2038008      223.07005      716.02161      716.02161     -0.026773       9.0302839e-06 -5.3637643e-10  1.1478184e-09
      1260   1.26           3.2331046e-14  4.6803017e-05 -3292.3731      1.3582126e-15  4.8541311      4.2038008      223.07005      716.01555      716.01555     -0.026164792    9.0300227e-06  2.5767639e-10  1.0278111e-09
      1270   1.27           3.2331046e-14  5.0411192e-05 -3292.3731      1.3582126e-15  4.8541311      4.2038008      223.07005      716.00673      716.00673     -0.028700573    9.0290327e-06  1.0808028e-09 -2.150231e-10 
      1280   1.28           3.2331046e-14  3.9851874e-05 -3292.3731      1.3582126e-15  4.8541311      4.2038008      223.07005      716.00591      716.00591     -0.022949614    9.0283116e-06  1.4835345e-09 -1.458049e-09 
      1290   1.29           3.2331046e-14  4.6454054e-05 -3292.3731      1.3582126e-15  4.8541311      4.2038008      223.07005      716.00367      716.00367     -0.026980059    9.0288424e-06  7.8436162e-10 -1.576467e-09 
      1300   1.3            3.2331046e-14  5.236183e-05  -3292.3731      1.3582126e-15  4.8541311      4.2038008      223.07005      716.0021       716.0021      -0.030616872    9.0300363e-06 -7.7201316e-10 -7.5763298e-10
      1310   1.31           3.2331046e-14  6.562474e-05  -3292.3731      1.3582126e-15  4.8541311      4.2038008      223.07005      716.00171      716.00171     -0.038586852    9.0314184e-06 -2.6455401e-09  9.047362e-10 
      1320   1.32           3.2331046e-14  6.6317254e-05 -3292.3731      1.3582126e-15  4.8541311      4.2038008      223.07005      716.01208      716.01208     -0.039505093    9.0315738e-06 -3.434591e-09   3.3631078e-09
      1330   1.33           3.2331046e-14  4.2575237e-05 -3292.3731      1.3582126e-15  4.8541311      4.2038008      223.07005      716.02484      716.02484     -0.025394308    9.0307498e-06 -2.7174426e-09  3.4777991e-09
      1340   1.34           3.2331046e-14  3.9280392e-05 -3292.3731      1.3582126e-15  4.8541311      4.2038008      223.07005      716.02542      716.02542     -0.023163231    9.0290955e-06 -1.0311745e-09  2.0827202e-09
      1350   1.35           3.2331046e-14  3.7848244e-05 -3292.3731      1.3582126e-15  4.8541311      4.2038008      223.07005      716.02222      716.02222     -0.02211532     9.0266827e-06  1.3144075e-09 -7.9729167e-10
      1360   1.36           3.2331046e-14  2.9848213e-05 -3292.3731      1.3582126e-15  4.8541311      4.2038008      223.07005      716.0223       716.0223      -0.017148726    9.0257077e-06  2.2010738e-09 -2.5813436e-09
      1370   1.37           3.2331046e-14  1.4480807e-05 -3292.3731      1.3582126e-15  4.8541311      4.2038008      223.07005      716.02861      716.02861      0.0015030001   9.0297026e-06 -8.9643562e-10  1.5302461e-09
      1380   1.38           3.2331046e-14  2.6676864e-06 -3292.3731      1.3582126e-15  4.8541311      4.2038008      223.07005      716.0352       716.0352       0.018980568    9.0289005e-06 -4.0788993e-10  5.4559626e-10
      1383   1.383          3.2331046e-14  4.3845272e-06 -3292.3731      1.3582126e-15  4.8541311      4.2038008      223.07005      716.02626      716.02626     -0.00062618178  9.028237e-06   2.4439008e-10 -4.3247755e-10
Loop time of 13.1048 on 2 procs for 1000 steps with 326 atoms

102.8% CPU use with 1 MPI tasks x 2 OpenMP threads

Minimization stats:
  Stopping criterion = max iterations
  Energy initial, next-to-last, final = 
     -3274.18221957701  -3292.37308833965  -3292.37308833965
  Force two-norm initial, final = 604.20689 4.6919131e-06
  Force max component initial, final = 604.20689 1.6703201e-06
  Final line search alpha, max atom move = 1 1.6703201e-06
  Iterations, force evaluations = 1000 1937

MPI task timing breakdown:
Section |  min time  |  avg time  |  max time  |%varavg| %total
---------------------------------------------------------------
Pair    | 12.921     | 12.921     | 12.921     |   0.0 | 98.59
Neigh   | 0.013716   | 0.013716   | 0.013716   |   0.0 |  0.10
Comm    | 0.0439     | 0.0439     | 0.0439     |   0.0 |  0.33
Output  | 0.0020313  | 0.0020313  | 0.0020313  |   0.0 |  0.02
Modify  | 0          | 0          | 0          |   0.0 |  0.00
Other   |            | 0.1245     |            |       |  0.95

Nlocal:            326 ave         326 max         326 min
Histogram: 1 0 0 0 0 0 0 0 0 0
Nghost:           6987 ave        6987 max        6987 min
Histogram: 1 0 0 0 0 0 0 0 0 0
Neighs:              0 ave           0 max           0 min
Histogram: 1 0 0 0 0 0 0 0 0 0
FullNghs:        39792 ave       39792 max       39792 min
Histogram: 1 0 0 0 0 0 0 0 0 0

Total # of neighbors = 39792
Ave neighs/atom = 122.06135
Neighbor list builds = 16
Dangerous builds = 0
unfix           3
min_style       fire
minimize        0.0 1.0e-8 2000 4000
Switching to 'neigh_modify every 1 delay 0 check yes' setting during minimization
  Parameters for fire:
    dmax  delaystep dtgrow dtshrink alpha0 alphashrink tmax tmin   integrator   halfstepback   abcfire  
     0.1     20      1.1     0.5     0.25     0.99      10  0.02 eulerimplicit      yes          no     
Per MPI rank memory allocation (min/avg/max) = 4.501 | 4.501 | 4.501 Mbytes
   Step          Time           Temp          Fnorm          PotEng         KinEng           Lx             Ly             Lz            Pxx            Pyy            Pzz            Pxy            Pxz            Pyz      
      1383   1.383          0              4.3845269e-06 -3292.3731      0              4.8541311      4.2038008      223.07005      716.02626      716.02626     -0.0006261816   9.0283739e-06  1.3153454e-10 -4.4841075e-10
      1390   1.39           6.7266974e-13  4.2059289e-06 -3292.3731      2.8258551e-14  4.8541311      4.2038008      223.07005      716.02625      716.02625     -0.00062987038  9.0284423e-06  1.6686051e-10 -4.9536714e-10
      1400   1.4            3.6149409e-12  3.4671836e-06 -3292.3731      1.5186203e-13  4.8541311      4.2038008      223.07005      716.02623      716.02623     -0.00064058526  9.0284488e-06  1.5998289e-10 -4.2261601e-10
      1410   2.497901       8.0884403e-12  2.3427488e-06 -3292.3731      3.3979171e-13  4.8541311      4.2038008      223.07005      716.02619      716.02619     -0.00065314397  9.0283189e-06  2.114869e-10  -2.5686676e-10
      1420   6.5248616      1.7681023e-11  1.445091e-06  -3292.3731      7.4277178e-13  4.8541311      4.2038008      223.07005      716.02628      716.02628     -0.00064755082  9.0285396e-06 -1.3755246e-11 -3.9140902e-11
      1430   14.3           3.6636823e-11  8.4599703e-07 -3292.3731      1.5390964e-12  4.8541311      4.2038008      223.07005      716.02628      716.02628     -0.00084235784  9.0286721e-06  2.3368287e-11 -1.1874645e-11
      1440   14.4           5.6613716e-11  4.0608676e-07 -3292.3731      2.3783166e-12  4.8541311      4.2038008      223.07005      716.02624      716.02624     -0.00061623912  9.0284128e-06  1.4067877e-12  3.4025426e-11
      1450   14.5           4.1983737e-11  2.4093189e-07 -3292.3731      1.7637178e-12  4.8541311      4.2038008      223.07005      716.02624      716.02624     -0.00065034706  9.028471e-06   6.3696166e-11  5.6210405e-11
      1460   14.6           2.0998424e-11  1.908554e-07  -3292.3731      8.8213427e-13  4.8541311      4.2038008      223.07005      716.02629      716.02629     -0.00082336197  9.0285108e-06 -4.329776e-11  -4.8365621e-11
      1470   14.7           5.007621e-12   5.4357171e-08 -3292.3731      2.1036789e-13  4.8541311      4.2038008      223.07005      716.02633      716.02633     -0.00092799906  9.0282088e-06  1.1957685e-10 -1.7963271e-10
      1480   7.4            1.3557634e-16  2.7297036e-08 -3292.3731      5.6955007e-18  4.8541311      4.2038008      223.07005      716.02634      716.02634     -0.00094512065  9.0280885e-06 -5.2910803e-11  8.7806924e-11
      1483   7.415          3.4045774e-16  9.3195206e-09 -3292.3731      1.4302475e-17  4.8541311      4.2038008      223.07005      716.02634      716.02634     -0.00094533276  9.0281425e-06 -1.0707208e-10  1.1636396e-10
Loop time of 0.680058 on 2 procs for 100 steps with 326 atoms

103.6% CPU use with 1 MPI tasks x 2 OpenMP threads

Minimization stats:
  Stopping criterion = force tolerance
  Energy initial, next-to-last, final = 
     -3292.37308833965  -3292.37308833965  -3292.37308833965
  Force two-norm initial, final = 4.3845269e-06 9.3195206e-09
  Force max component initial, final = 1.3096678e-06 2.8761654e-09
  Final line search alpha, max atom move = 0 0
  Iterations, force evaluations = 100 102

MPI task timing breakdown:
Section |  min time  |  avg time  |  max time  |%varavg| %total
---------------------------------------------------------------
Pair    | 0.67687    | 0.67687    | 0.67687    |   0.0 | 99.53
Neigh   | 0          | 0          | 0          |   0.0 |  0.00
Comm    | 0.0022127  | 0.0022127  | 0.0022127  |   0.0 |  0.33
Output  | 0.00013955 | 0.00013955 | 0.00013955 |   0.0 |  0.02
Modify  | 0          | 0          | 0          |   0.0 |  0.00
Other   |            | 0.000833   |            |       |  0.12

Nlocal:            326 ave         326 max         326 min
Histogram: 1 0 0 0 0 0 0 0 0 0
Nghost:           6987 ave        6987 max        6987 min
Histogram: 1 0 0 0 0 0 0 0 0 0
Neighs:              0 ave           0 max           0 min
Histogram: 1 0 0 0 0 0 0 0 0 0
FullNghs:        39792 ave       39792 max       39792 min
Histogram: 1 0 0 0 0 0 0 0 0 0

Total # of neighbors = 39792
Ave neighs/atom = 122.06135
Neighbor list builds = 0
Dangerous builds = 0

fix             3 all box/relax z 0.0 vmax 0.001
min_style       cg
minimize        0.0 1.0e-8 1000 2000
Switching to 'neigh_modify every 1 delay 0 check yes' setting during minimization
WARNING: Energy due to 3 extra global DOFs will be included in minimizer energies
 (src/min.cpp:219)
Per MPI rank memory allocation (min/avg/max) = 5.626 | 5.626 | 5.626 Mbytes
   Step          Time           Temp          Fnorm          PotEng         KinEng           Lx             Ly             Lz            Pxx            Pyy            Pzz            Pxy            Pxz            Pyz      
      1483   1.483          3.4045774e-16  9.3187482e-09 -3292.3731      1.4302475e-17  4.8541311      4.2038008      223.07005      716.02634      716.02634     -0.00094533226  9.0279953e-06  2.1414417e-11  1.2558867e-10
      1487   1.487          3.4045774e-16  7.8524292e-09 -3292.3731      1.4302475e-17  4.8541311      4.2038008      223.07005      716.02677      716.02677     -1.1188517e-06  9.0282282e-06 -2.1648881e-11 -4.6702381e-11
Loop time of 0.0589569 on 2 procs for 4 steps with 326 atoms

103.7% CPU use with 1 MPI tasks x 2 OpenMP threads

Minimization stats:
  Stopping criterion = force tolerance
  Energy initial, next-to-last, final = 
     -3292.37308833965  -3292.37308833965  -3292.37308833965
  Force two-norm initial, final = 2.6857874e-06 8.4714301e-09
  Force max component initial, final = 2.6857712e-06 3.178755e-09
  Final line search alpha, max atom move = 1 3.178755e-09
  Iterations, force evaluations = 4 8

MPI task timing breakdown:
Section |  min time  |  avg time  |  max time  |%varavg| %total
---------------------------------------------------------------
Pair    | 0.058272   | 0.058272   | 0.058272   |   0.0 | 98.84
Neigh   | 0          | 0          | 0          |   0.0 |  0.00
Comm    | 0.00017676 | 0.00017676 | 0.00017676 |   0.0 |  0.30
Output  | 0          | 0          | 0          |   0.0 |  0.00
Modify  | 0          | 0          | 0          |   0.0 |  0.00
Other   |            | 0.0005081  |            |       |  0.86

Nlocal:            326 ave         326 max         326 min
Histogram: 1 0 0 0 0 0 0 0 0 0
Nghost:           6987 ave        6987 max        6987 min
Histogram: 1 0 0 0 0 0 0 0 0 0
Neighs:              0 ave           0 max           0 min
Histogram: 1 0 0 0 0 0 0 0 0 0
FullNghs:        39792 ave       39792 max       39792 min
Histogram: 1 0 0 0 0 0 0 0 0 0

Total # of neighbors = 39792
Ave neighs/atom = 122.06135
Neighbor list builds = 0
Dangerous builds = 0
unfix           3
min_style       fire
minimize        0.0 1.0e-8 2000 4000
Switching to 'neigh_modify every 1 delay 0 check yes' setting during minimization
  Parameters for fire:
    dmax  delaystep dtgrow dtshrink alpha0 alphashrink tmax tmin   integrator   halfstepback   abcfire  
     0.1     20      1.1     0.5     0.25     0.99      10  0.02 eulerimplicit      yes          no     
Per MPI rank memory allocation (min/avg/max) = 4.501 | 4.501 | 4.501 Mbytes
   Step          Time           Temp          Fnorm          PotEng         KinEng           Lx             Ly             Lz            Pxx            Pyy            Pzz            Pxy            Pxz            Pyz      
      1487   1.487          0              7.8524079e-09 -3292.3731      0              4.8541311      4.2038008      223.07005      716.02677      716.02677     -1.1185878e-06  9.0282377e-06 -2.8370194e-11 -5.9262102e-11
      1488   1.488          5.4896297e-20  7.843291e-09  -3292.3731      2.3061686e-21  4.8541311      4.2038008      223.07005      716.02677      716.02677     -1.1171967e-06  9.0281879e-06 -4.0953118e-11 -6.8009335e-11
Loop time of 0.0193334 on 2 procs for 1 steps with 326 atoms

99.2% CPU use with 1 MPI tasks x 2 OpenMP threads

Minimization stats:
  Stopping criterion = force tolerance
  Energy initial, next-to-last, final = 
     -3292.37308833966  -3292.37308833966  -3292.37308833965
  Force two-norm initial, final = 7.8524079e-09 7.843291e-09
  Force max component initial, final = 2.1213219e-09 2.1177514e-09
  Final line search alpha, max atom move = 0 0
  Iterations, force evaluations = 1 2

MPI task timing breakdown:
Section |  min time  |  avg time  |  max time  |%varavg| %total
---------------------------------------------------------------
Pair    | 0.019234   | 0.019234   | 0.019234   |   0.0 | 99.48
Neigh   | 0          | 0          | 0          |   0.0 |  0.00
Comm    | 6.2479e-05 | 6.2479e-05 | 6.2479e-05 |   0.0 |  0.32
Output  | 0          | 0          | 0          |   0.0 |  0.00
Modify  | 0          | 0          | 0          |   0.0 |  0.00
Other   |            | 3.709e-05  |            |       |  0.19

Nlocal:            326 ave         326 max         326 min
Histogram: 1 0 0 0 0 0 0 0 0 0
Nghost:           6987 ave        6987 max        6987 min
Histogram: 1 0 0 0 0 0 0 0 0 0
Neighs:              0 ave           0 max           0 min
Histogram: 1 0 0 0 0 0 0 0 0 0
FullNghs:        39792 ave       39792 max       39792 min
Histogram: 1 0 0 0 0 0 0 0 0 0

Total # of neighbors = 39792
Ave neighs/atom = 122.06135
Neighbor list builds = 0
Dangerous builds = 0

fix             3 all box/relax z 0.0 vmax 0.001
min_style       cg
minimize        0.0 1.0e-8 1000 2000
Switching to 'neigh_modify every 1 delay 0 check yes' setting during minimization
WARNING: Energy due to 3 extra global DOFs will be included in minimizer energies
 (src/min.cpp:219)
Per MPI rank memory allocation (min/avg/max) = 5.626 | 5.626 | 5.626 Mbytes
   Step          Time           Temp          Fnorm          PotEng         KinEng           Lx             Ly             Lz            Pxx            Pyy            Pzz            Pxy            Pxz            Pyz      
      1488   1.488          5.4896297e-20  7.8433356e-09 -3292.3731      2.3061686e-21  4.8541311      4.2038008      223.07005      716.02677      716.02677     -1.1169835e-06  9.0282266e-06 -3.0480374e-11 -6.0301317e-11
      1490   1.49           5.4896297e-20  5.2268363e-09 -3292.3731      2.3061686e-21  4.8541311      4.2038008      223.07005      716.02677      716.02677      2.407168e-09   9.0282002e-06 -5.9085033e-11  5.8261965e-11
Loop time of 0.0334355 on 2 procs for 2 steps with 326 atoms

104.7% CPU use with 1 MPI tasks x 2 OpenMP threads

Minimization stats:
  Stopping criterion = force tolerance
  Energy initial, next-to-last, final = 
     -3292.37308833965  -3292.37308833965  -3292.37308833965
  Force two-norm initial, final = 8.4610095e-09 5.2268408e-09
  Force max component initial, final = 3.1734473e-09 1.0908855e-09
  Final line search alpha, max atom move = 1 1.0908855e-09
  Iterations, force evaluations = 2 4

MPI task timing breakdown:
Section |  min time  |  avg time  |  max time  |%varavg| %total
---------------------------------------------------------------
Pair    | 0.033074   | 0.033074   | 0.033074   |   0.0 | 98.92
Neigh   | 0          | 0          | 0          |   0.0 |  0.00
Comm    | 9.678e-05  | 9.678e-05  | 9.678e-05  |   0.0 |  0.29
Output  | 0          | 0          | 0          |   0.0 |  0.00
Modify  | 0          | 0          | 0          |   0.0 |  0.00
Other   |            | 0.0002644  |            |       |  0.79

Nlocal:            326 ave         326 max         326 min
Histogram: 1 0 0 0 0 0 0 0 0 0
Nghost:           6987 ave        6987 max        6987 min
Histogram: 1 0 0 0 0 0 0 0 0 0
Neighs:              0 ave           0 max           0 min
Histogram: 1 0 0 0 0 0 0 0 0 0
FullNghs:        39792 ave       39792 max       39792 min
Histogram: 1 0 0 0 0 0 0 0 0 0

Total # of neighbors = 39792
Ave neighs/atom = 122.06135
Neighbor list builds = 0
Dangerous builds = 0
unfix           3
min_style       fire
minimize        0.0 1.0e-8 2000 4000
Switching to 'neigh_modify every 1 delay 0 check yes' setting during minimization
  Parameters for fire:
    dmax  delaystep dtgrow dtshrink alpha0 alphashrink tmax tmin   integrator   halfstepback   abcfire  
     0.1     20      1.1     0.5     0.25     0.99      10  0.02 eulerimplicit      yes          no     
Per MPI rank memory allocation (min/avg/max) = 4.501 | 4.501 | 4.501 Mbytes
   Step          Time           Temp          Fnorm          PotEng         KinEng           Lx             Ly             Lz            Pxx            Pyy            Pzz            Pxy            Pxz            Pyz      
      1490   1.49           0              5.2269473e-09 -3292.3731      0              4.8541311      4.2038008      223.07005      716.02677      716.02677      2.0851702e-09  9.0282962e-06 -8.1671772e-11  2.7961103e-11
      1491   1.491          2.8842058e-20  5.2222627e-09 -3292.3731      1.2116418e-21  4.8541311      4.2038008      223.07005      716.02677      716.02677      1.9920097e-09  9.0282599e-06 -9.4958089e-11  9.489703e-12 
Loop time of 0.0200013 on 2 procs for 1 steps with 326 atoms

102.1% CPU use with 1 MPI tasks x 2 OpenMP threads

Minimization stats:
  Stopping criterion = force tolerance
  Energy initial, next-to-last, final = 
     -3292.37308833965  -3292.37308833965  -3292.37308833965
  Force two-norm initial, final = 5.2269473e-09 5.2222627e-09
  Force max component initial, final = 1.0910188e-09 1.0885882e-09
  Final line search alpha, max atom move = 0 0
  Iterations, force evaluations = 1 2

MPI task timing breakdown:
Section |  min time  |  avg time  |  max time  |%varavg| %total
---------------------------------------------------------------
Pair    | 0.019908   | 0.019908   | 0.019908   |   0.0 | 99.54
Neigh   | 0          | 0          | 0          |   0.0 |  0.00
Comm    | 6.0174e-05 | 6.0174e-05 | 6.0174e-05 |   0.0 |  0.30
Output  | 0          | 0          | 0          |   0.0 |  0.00
Modify  | 0          | 0          | 0          |   0.0 |  0.00
Other   |            | 3.275e-05  |            |       |  0.16

Nlocal:            326 ave         326 max         326 min
Histogram: 1 0 0 0 0 0 0 0 0 0
Nghost:           6987 ave        6987 max        6987 min
Histogram: 1 0 0 0 0 0 0 0 0 0
Neighs:              0 ave           0 max           0 min
Histogram: 1 0 0 0 0 0 0 0 0 0
FullNghs:        39792 ave       39792 max       39792 min
Histogram: 1 0 0 0 0 0 0 0 0 0

Total # of neighbors = 39792
Ave neighs/atom = 122.06135
Neighbor list builds = 0
Dangerous builds = 0

fix             3 all box/relax z 0.0 vmax 0.001
min_style       cg
minimize        0.0 1.0e-8 1000 2000
Switching to 'neigh_modify every 1 delay 0 check yes' setting during minimization
WARNING: Energy due to 3 extra global DOFs will be included in minimizer energies
 (src/min.cpp:219)
Per MPI rank memory allocation (min/avg/max) = 5.626 | 5.626 | 5.626 Mbytes
   Step          Time           Temp          Fnorm          PotEng         KinEng           Lx             Ly             Lz            Pxx            Pyy            Pzz            Pxy            Pxz            Pyz      
      1491   1.491          2.8842058e-20  5.2224488e-09 -3292.3731      1.2116418e-21  4.8541311      4.2038008      223.07005      716.02677      716.02677      1.649379e-09   9.0282457e-06 -9.2769754e-11 -3.0288651e-11
      1492   1.492          2.8842058e-20  5.6601227e-09 -3292.3731      1.2116418e-21  4.8541311      4.2038008      223.07005      716.02677      716.02677     -1.1136472e-06  9.0280427e-06 -1.8600844e-11  2.1656208e-11
Loop time of 0.0199209 on 2 procs for 1 steps with 326 atoms

105.8% CPU use with 1 MPI tasks x 2 OpenMP threads

Minimization stats:
  Stopping criterion = force tolerance
  Energy initial, next-to-last, final = 
     -3292.37308833966  -3292.37308833966  -3292.37308833965
  Force two-norm initial, final = 5.2224509e-09 6.4844188e-09
  Force max component initial, final = 1.0887192e-09 3.1639686e-09
  Final line search alpha, max atom move = 1 3.1639686e-09
  Iterations, force evaluations = 1 2

MPI task timing breakdown:
Section |  min time  |  avg time  |  max time  |%varavg| %total
---------------------------------------------------------------
Pair    | 0.019717   | 0.019717   | 0.019717   |   0.0 | 98.97
Neigh   | 0          | 0          | 0          |   0.0 |  0.00
Comm    | 5.8662e-05 | 5.8662e-05 | 5.8662e-05 |   0.0 |  0.29
Output  | 0          | 0          | 0          |   0.0 |  0.00
Modify  | 0          | 0          | 0          |   0.0 |  0.00
Other   |            | 0.0001456  |            |       |  0.73

Nlocal:            326 ave         326 max         326 min
Histogram: 1 0 0 0 0 0 0 0 0 0
Nghost:           6987 ave        6987 max        6987 min
Histogram: 1 0 0 0 0 0 0 0 0 0
Neighs:              0 ave           0 max           0 min
Histogram: 1 0 0 0 0 0 0 0 0 0
FullNghs:        39792 ave       39792 max       39792 min
Histogram: 1 0 0 0 0 0 0 0 0 0

Total # of neighbors = 39792
Ave neighs/atom = 122.06135
Neighbor list builds = 0
Dangerous builds = 0
unfix           3
min_style       fire
minimize        0.0 1.0e-8 2000 4000
Switching to 'neigh_modify every 1 delay 0 check yes' setting during minimization
  Parameters for fire:
    dmax  delaystep dtgrow dtshrink alpha0 alphashrink tmax tmin   integrator   halfstepback   abcfire  
     0.1     20      1.1     0.5     0.25     0.99      10  0.02 eulerimplicit      yes          no     
Per MPI rank memory allocation (min/avg/max) = 4.501 | 4.501 | 4.501 Mbytes
   Step          Time           Temp          Fnorm          PotEng         KinEng           Lx             Ly             Lz            Pxx            Pyy            Pzz            Pxy            Pxz            Pyz      
      1492   1.492          0              5.6611288e-09 -3292.3731      0              4.8541311      4.2038008      223.07005      716.02677      716.02677     -1.1133508e-06  9.0281074e-06 -9.4567315e-12  4.4551903e-11
      1493   1.493          3.0735981e-20  5.6545802e-09 -3292.3731      1.2912046e-21  4.8541311      4.2038008      223.07005      716.02677      716.02677     -1.1132858e-06  9.0280902e-06  2.1648881e-11  3.5379704e-11
Loop time of 0.0237827 on 2 procs for 1 steps with 326 atoms

82.8% CPU use with 1 MPI tasks x 2 OpenMP threads

Minimization stats:
  Stopping criterion = force tolerance
  Energy initial, next-to-last, final = 
     -3292.37308833965  -3292.37308833965  -3292.37308833965
  Force two-norm initial, final = 5.6611288e-09 5.6545802e-09
  Force max component initial, final = 1.7565579e-09 1.753392e-09
  Final line search alpha, max atom move = 0 0
  Iterations, force evaluations = 1 2

MPI task timing breakdown:
Section |  min time  |  avg time  |  max time  |%varavg| %total
---------------------------------------------------------------
Pair    | 0.023509   | 0.023509   | 0.023509   |   0.0 | 98.85
Neigh   | 0          | 0          | 0          |   0.0 |  0.00
Comm    | 0.00017867 | 0.00017867 | 0.00017867 |   0.0 |  0.75
Output  | 0          | 0          | 0          |   0.0 |  0.00
Modify  | 0          | 0          | 0          |   0.0 |  0.00
Other   |            | 9.468e-05  |            |       |  0.40

Nlocal:            326 ave         326 max         326 min
Histogram: 1 0 0 0 0 0 0 0 0 0
Nghost:           6987 ave        6987 max        6987 min
Histogram: 1 0 0 0 0 0 0 0 0 0
Neighs:              0 ave           0 max           0 min
Histogram: 1 0 0 0 0 0 0 0 0 0
FullNghs:        39792 ave       39792 max       39792 min
Histogram: 1 0 0 0 0 0 0 0 0 0

Total # of neighbors = 39792
Ave neighs/atom = 122.06135
Neighbor list builds = 0
Dangerous builds = 0

fix             3 all box/relax z 0.0 vmax 0.001
min_style       cg
minimize        0.0 1.0e-8 1000 2000
Switching to 'neigh_modify every 1 delay 0 check yes' setting during minimization
WARNING: Energy due to 3 extra global DOFs will be included in minimizer energies
 (src/min.cpp:219)
Per MPI rank memory allocation (min/avg/max) = 5.626 | 5.626 | 5.626 Mbytes
   Step          Time           Temp          Fnorm          PotEng         KinEng           Lx             Ly             Lz            Pxx            Pyy            Pzz            Pxy            Pxz            Pyz      
      1493   1.493          3.0735981e-20  5.6539758e-09 -3292.3731      1.2912046e-21  4.8541311      4.2038008      223.07005      716.02677      716.02677     -1.1132608e-06  9.0280921e-06 -4.1734666e-11 -2.4842238e-11
      1495   1.495          3.0735981e-20  4.8245991e-09 -3292.3731      1.2912046e-21  4.8541311      4.2038008      223.07005      716.02677      716.02677      1.5922322e-08  9.0280624e-06  4.8065205e-11  5.8385303e-11
Loop time of 0.0322319 on 2 procs for 2 steps with 326 atoms

97.4% CPU use with 1 MPI tasks x 2 OpenMP threads

Minimization stats:
  Stopping criterion = force tolerance
  Energy initial, next-to-last, final = 
     -3292.37308833965  -3292.37308833966  -3292.37308833965
  Force two-norm initial, final = 6.4785179e-09 4.8248112e-09
  Force max component initial, final = 3.1628709e-09 1.3528115e-09
  Final line search alpha, max atom move = 1 1.3528115e-09
  Iterations, force evaluations = 2 4

MPI task timing breakdown:
Section |  min time  |  avg time  |  max time  |%varavg| %total
---------------------------------------------------------------
Pair    | 0.03186    | 0.03186    | 0.03186    |   0.0 | 98.85
Neigh   | 0          | 0          | 0          |   0.0 |  0.00
Comm    | 9.9508e-05 | 9.9508e-05 | 9.9508e-05 |   0.0 |  0.31
Output  | 0          | 0          | 0          |   0.0 |  0.00
Modify  | 0          | 0          | 0          |   0.0 |  0.00
Other   |            | 0.0002722  |            |       |  0.84

Nlocal:            326 ave         326 max         326 min
Histogram: 1 0 0 0 0 0 0 0 0 0
Nghost:           6987 ave        6987 max        6987 min
Histogram: 1 0 0 0 0 0 0 0 0 0
Neighs:              0 ave           0 max           0 min
Histogram: 1 0 0 0 0 0 0 0 0 0
FullNghs:        39792 ave       39792 max       39792 min
Histogram: 1 0 0 0 0 0 0 0 0 0

Total # of neighbors = 39792
Ave neighs/atom = 122.06135
Neighbor list builds = 0
Dangerous builds = 0
unfix           3
min_style       fire
minimize        0.0 1.0e-8 2000 4000
Switching to 'neigh_modify every 1 delay 0 check yes' setting during minimization
  Parameters for fire:
    dmax  delaystep dtgrow dtshrink alpha0 alphashrink tmax tmin   integrator   halfstepback   abcfire  
     0.1     20      1.1     0.5     0.25     0.99      10  0.02 eulerimplicit      yes          no     
Per MPI rank memory allocation (min/avg/max) = 4.501 | 4.501 | 4.501 Mbytes
   Step          Time           Temp          Fnorm          PotEng         KinEng           Lx             Ly             Lz            Pxx            Pyy            Pzz            Pxy            Pxz            Pyz      
      1495   1.495          0              4.8244918e-09 -3292.3731      0              4.8541311      4.2038008      223.07005      716.02677      716.02677      1.6446897e-08  9.0280595e-06  5.1425862e-11  1.7346703e-11
      1496   1.496          2.4745074e-20  4.8197012e-09 -3292.3731      1.0395294e-21  4.8541311      4.2038008      223.07005      716.02677      716.02677      1.6378746e-08  9.0280774e-06  4.814336e-11   2.3981314e-11
Loop time of 0.0188 on 2 procs for 1 steps with 326 atoms

99.6% CPU use with 1 MPI tasks x 2 OpenMP threads

Minimization stats:
  Stopping criterion = force tolerance
  Energy initial, next-to-last, final = 
     -3292.37308833965  -3292.37308833965  -3292.37308833965
  Force two-norm initial, final = 4.8244918e-09 4.8197012e-09
  Force max component initial, final = 1.3533084e-09 1.3505587e-09
  Final line search alpha, max atom move = 0 0
  Iterations, force evaluations = 1 2

MPI task timing breakdown:
Section |  min time  |  avg time  |  max time  |%varavg| %total
---------------------------------------------------------------
Pair    | 0.0187     | 0.0187     | 0.0187     |   0.0 | 99.47
Neigh   | 0          | 0          | 0          |   0.0 |  0.00
Comm    | 6.3549e-05 | 6.3549e-05 | 6.3549e-05 |   0.0 |  0.34
Output  | 0          | 0          | 0          |   0.0 |  0.00
Modify  | 0          | 0          | 0          |   0.0 |  0.00
Other   |            | 3.618e-05  |            |       |  0.19

Nlocal:            326 ave         326 max         326 min
Histogram: 1 0 0 0 0 0 0 0 0 0
Nghost:           6987 ave        6987 max        6987 min
Histogram: 1 0 0 0 0 0 0 0 0 0
Neighs:              0 ave           0 max           0 min
Histogram: 1 0 0 0 0 0 0 0 0 0
FullNghs:        39792 ave       39792 max       39792 min
Histogram: 1 0 0 0 0 0 0 0 0 0

Total # of neighbors = 39792
Ave neighs/atom = 122.06135
Neighbor list builds = 0
Dangerous builds = 0

fix             3 all box/relax z 0.0 vmax 0.001
min_style       cg
minimize        0.0 1.0e-8 1000 2000
Switching to 'neigh_modify every 1 delay 0 check yes' setting during minimization
WARNING: Energy due to 3 extra global DOFs will be included in minimizer energies
 (src/min.cpp:219)
Per MPI rank memory allocation (min/avg/max) = 5.626 | 5.626 | 5.626 Mbytes
   Step          Time           Temp          Fnorm          PotEng         KinEng           Lx             Ly             Lz            Pxx            Pyy            Pzz            Pxy            Pxz            Pyz      
      1496   1.496          2.4745074e-20  4.8202013e-09 -3292.3731      1.0395294e-21  4.8541311      4.2038008      223.07005      716.02677      716.02677      1.6445647e-08  9.0280167e-06  2.2039655e-11  7.2625353e-11
      1498   1.498          2.4745074e-20  5.3126397e-09 -3292.3731      1.0395294e-21  4.8541311      4.2038008      223.07005      716.02677      716.02677      4.2104057e-07  9.0280891e-06 -2.7041563e-11  7.1611783e-11
Loop time of 0.0316659 on 2 procs for 2 steps with 326 atoms

99.6% CPU use with 1 MPI tasks x 2 OpenMP threads

Minimization stats:
  Stopping criterion = force tolerance
  Energy initial, next-to-last, final = 
     -3292.37308833965  -3292.37308833965  -3292.37308833965
  Force two-norm initial, final = 4.8204277e-09 5.4456465e-09
  Force max component initial, final = 1.3503056e-09 1.7188579e-09
  Final line search alpha, max atom move = 1 1.7188579e-09
  Iterations, force evaluations = 2 4

MPI task timing breakdown:
Section |  min time  |  avg time  |  max time  |%varavg| %total
---------------------------------------------------------------
Pair    | 0.031294   | 0.031294   | 0.031294   |   0.0 | 98.82
Neigh   | 0          | 0          | 0          |   0.0 |  0.00
Comm    | 0.00010063 | 0.00010063 | 0.00010063 |   0.0 |  0.32
Output  | 0          | 0          | 0          |   0.0 |  0.00
Modify  | 0          | 0          | 0          |   0.0 |  0.00
Other   |            | 0.0002716  |            |       |  0.86

Nlocal:            326 ave         326 max         326 min
Histogram: 1 0 0 0 0 0 0 0 0 0
Nghost:           6987 ave        6987 max        6987 min
Histogram: 1 0 0 0 0 0 0 0 0 0
Neighs:              0 ave           0 max           0 min
Histogram: 1 0 0 0 0 0 0 0 0 0
FullNghs:        39792 ave       39792 max       39792 min
Histogram: 1 0 0 0 0 0 0 0 0 0

Total # of neighbors = 39792
Ave neighs/atom = 122.06135
Neighbor list builds = 0
Dangerous builds = 0
unfix           3
min_style       fire
minimize        0.0 1.0e-8 2000 4000
Switching to 'neigh_modify every 1 delay 0 check yes' setting during minimization
  Parameters for fire:
    dmax  delaystep dtgrow dtshrink alpha0 alphashrink tmax tmin   integrator   halfstepback   abcfire  
     0.1     20      1.1     0.5     0.25     0.99      10  0.02 eulerimplicit      yes          no     
Per MPI rank memory allocation (min/avg/max) = 4.501 | 4.501 | 4.501 Mbytes
   Step          Time           Temp          Fnorm          PotEng         KinEng           Lx             Ly             Lz            Pxx            Pyy            Pzz            Pxy            Pxz            Pyz      
      1498   1.498          0              5.3126174e-09 -3292.3731      0              4.8541311      4.2038008      223.07005      716.02677      716.02677      4.2120563e-07  9.0281768e-06 -4.8612289e-11  9.1444786e-11
      1499   1.499          2.731593e-20   5.3064854e-09 -3292.3731      1.1475298e-21  4.8541311      4.2038008      223.07005      716.02677      716.02677      4.2130129e-07  9.0281388e-06 -5.431759e-11   8.2922249e-11
Loop time of 0.0200049 on 2 procs for 1 steps with 326 atoms

108.1% CPU use with 1 MPI tasks x 2 OpenMP threads

Minimization stats:
  Stopping criterion = force tolerance
  Energy initial, next-to-last, final = 
     -3292.37308833965  -3292.37308833965  -3292.37308833965
  Force two-norm initial, final = 5.3126174e-09 5.3064854e-09
  Force max component initial, final = 1.7188383e-09 1.7155104e-09
  Final line search alpha, max atom move = 0 0
  Iterations, force evaluations = 1 2

MPI task timing breakdown:
Section |  min time  |  avg time  |  max time  |%varavg| %total
---------------------------------------------------------------
Pair    | 0.019905   | 0.019905   | 0.019905   |   0.0 | 99.50
Neigh   | 0          | 0          | 0          |   0.0 |  0.00
Comm    | 6.3014e-05 | 6.3014e-05 | 6.3014e-05 |   0.0 |  0.31
Output  | 0          | 0          | 0          |   0.0 |  0.00
Modify  | 0          | 0          | 0          |   0.0 |  0.00
Other   |            | 3.679e-05  |            |       |  0.18

Nlocal:            326 ave         326 max         326 min
Histogram: 1 0 0 0 0 0 0 0 0 0
Nghost:           6987 ave        6987 max        6987 min
Histogram: 1 0 0 0 0 0 0 0 0 0
Neighs:              0 ave           0 max           0 min
Histogram: 1 0 0 0 0 0 0 0 0 0
FullNghs:        39792 ave       39792 max       39792 min
Histogram: 1 0 0 0 0 0 0 0 0 0

Total # of neighbors = 39792
Ave neighs/atom = 122.06135
Neighbor list builds = 0
Dangerous builds = 0


write_data      fire_cg_${name}.data
write_data      fire_cg_lmps.data
System init for write_data ...

write_data      bi_minimised.data
System init for write_data ...

print """- step: $(step)
  atoms: $(atoms)
  temp: $(temp)
  press: $(press)
  pe: $(pe)
  ke: $(ke)
  etotal: $(etotal)
  vol: $(vol)
  avecx: $(avecx)
  avecy: $(avecy)
  avecz: $(avecz)
  bvecx: $(bvecx)
  bvecy: $(bvecy)
  bvecz: $(bvecz)
  cvecx: $(cvecx)
  cvecy: $(cvecy)
  cvecz: $(cvecz)
  lx: $(lx)
  ly: $(ly)
  lz: $(lz)
  cella: $(cella)
  cellb: $(cellb)
  cellc: $(cellc)
  cellalpha: $(cellalpha)
  cellbeta: $(cellbeta)
  cellgamma: $(cellgamma)
  pxx: $(pxx)
  pyy: $(pyy)
  pzz: $(pzz)
  pxy: $(pxy)
  pyz: $(pyz)
  pxz: $(pxz)
  xlo: $(xlo)
  xhi: $(xhi)
  ylo: $(ylo)
  yhi: $(yhi)
  zlo: $(zlo)
  zhi: $(zhi)
  xy: $(xy)
  xz: $(xz)
  yz: $(yz)
""" file bi_minimised.data.yaml screen yes universe no
- step: 1499
  atoms: 326
  temp: 2.7315929936364306719e-20
  press: 477.351181373566817
  pe: -3292.3730883396519857
  ke: 1.1475298459248946298e-21
  etotal: -3292.3730883396519857
  vol: 4551.9228887133531316
  avecx: 4.8541310641848607332
  avecy: 0
  avecz: 0
  bvecx: -2.4270655321457348386
  bvecy: 4.2038008148832508581
  bvecz: 0
  cvecx: 0
  cvecy: 0
  cvecz: 223.07005171263668331
  lx: 4.8541310641848607332
  ly: 4.2038008148832508581
  lz: 223.07005171263668331
  cella: 4.8541310641848607332
  cellb: 4.8541310642114865459
  cellc: 223.07005171263668331
  cellalpha: 90
  cellbeta: 90
  cellgamma: 120.00000000054507154
  pxx: 716.02677184443575698
  pyy: 716.02677185496327184
  pzz: 4.213012944631201636e-07
  pxy: 9.028138795133330846e-06
  pyz: 8.2922248622513253966e-11
  pxz: -5.4317589813992933859e-11
  xlo: 0.00049104455757122676164
  xhi: 4.8546221087424319407
  ylo: 0.00042525705837334908024
  yhi: 4.2042260719416244541
  zlo: -6.8158967643678911585
  zhi: 216.25415494826879126
  xy: -2.4270655321457348386
  xz: 0
  yz: 0

[GRACE:debug, proc #0]: Data preparation timer: 1.20184e+06 mcs, graph execution time: 2.05534e+07 mcs, data preparation time fraction: 5.52 %
Total wall time: 0:00:24
